,REFERENCE: tag,REFERENCE: doi,FORMULA,PROPERTY: Type of phases,PROPERTY: Single/Multiphase,PROPERTY: synthesis method,PROPERTY: grain size ($\mu$m),PROPERTY: ROM Density (g/cm$^3$),PROPERTY: HV,PROPERTY: Type of test,PROPERTY: Test temperature ($^\circ$C),PROPERTY: YS (MPa),PROPERTY: UTS (MPa),PROPERTY: Elongation (%),PROPERTY: Elongation plastic (%),PROPERTY: ROM Young modulus (GPa),PROPERTY: Exp. Young modulus (GPa),PROPERTY: O content (wppm),PROPERTY: N content (wppm),PROPERTY: C content (wppm),REFERENCE: comment,Internal Reference #,Original DOI,PROPERTY: Exp. Density (g/cm$^3$),Unnamed: 22,IDENTIFIER: Reference ID
327,64,10.1016/j.matdes.2015.05.019,HfMoNbZrTi,BCC,S,AC,,8.7,,C,25.0,1803.0,1719.0,10,,139.0,,,,,,,,,,50
421,81,10.1016/j.jallcom.2015.11.050,AlCrMoNbTi,BCC,S,AC,,6.6,,C,25.0,,,,,,,92.0,undetectable,,,,,,,65
422,81,10.1016/j.jallcom.2015.11.050,AlCrMoNbTi,BCC,S,AC,,6.6,,C,400.0,1080.0,1100.0,0.02,,,,92.0,undetectable,,,,,,,65
423,81,10.1016/j.jallcom.2015.11.050,AlCrMoNbTi,BCC,S,AC,,6.6,,C,600.0,1060.0,1170.0,0.025,,,,92.0,undetectable,,,,,,,65
424,81,10.1016/j.jallcom.2015.11.050,AlCrMoNbTi,BCC,S,AC,,6.6,,C,800.0,860.0,1000.0,0.02,,,,92.0,undetectable,,,,,,,65
425,81,10.1016/j.jallcom.2015.11.050,AlCrMoNbTi,BCC,S,AC,,6.6,,C,1000.0,594.0,630.0,0.15,,,,92.0,undetectable,,,,,,,65
426,81,10.1016/j.jallcom.2015.11.050,AlCrMoNbTi,BCC,S,AC,,6.6,,C,1200.0,105.0,116.0,0.24,,,,92.0,undetectable,,,,,,,65
427,Couzinie_11,10.1007/s11661-017-4386-1,AlCrMoNbTi,BCC,S,A,,6.6,,C,600.0,930.0,,,,,,92.0,undetectable,,,,,,,67
43,J4-71,10.1016/j.jallcom.2017.03.307,AlCoCrFeNi,BCC + B2,M,AC,,,,T,25.0,395,400,1,,,,,,,I don't like this reference...,71.0,10.1016/j.jallcom.2017.03.307,,,189
78,J4-38,10.1117/1.JEI.26.4.043022,CoCrFeMnNi,FCC,,HF+A,13,,,T,25.0,243,558,50,,,,,,,processing isn't technically as cast because it's forged. so hr ,38.0,10.1117/1.JEI.26.4.043022,,"Further going back to the original paper, i disagree with their noted elongation. Plus the paper switched two of these (https://www.tandfonline.com/doi/full/10.1080/02670836.2017.1342367?scroll=top&needAccess=true) (ef = 58)",177
79,J4-38,10.1117/1.JEI.26.4.043022,(CoCrFeMnNi)98C2,FCC + Carbide,,HF+A,8,,,T,25.0,446,723,15,,,,,,,processing isn't technically as cast because it's forged. so hr ,38.0,10.1117/1.JEI.26.4.043022,,"Further going back to the original paper, i disagree with their noted elongation Plus the paper switched two of these (https://www.tandfonline.com/doi/full/10.1080/02670836.2017.1342367?scroll=top&needAccess=true) (ef = 15.5)",177
80,J4-38,10.1117/1.JEI.26.4.043022,CoCrFeMnNi,FCC,,HF+CR+A,7,,,T,25.0,249,621,41,,,,,,,,38.0,10.1117/1.JEI.26.4.043022,,ef = 47,177
81,J4-38,10.1117/1.JEI.26.4.043022,(CoCrFeMnNi)98C2,FCC + Carbide,,HF+CR+A,4,,,T,25.0,581,857,28,,,,,,,fixed grain size ,38.0,10.1117/1.JEI.26.4.043022,,ef = 35,177
136,J5,10.1016/j.actamat.2018.11.049,FeCoNiCrTi0.2,FCC,S,CR + A,51,,,T,25.0,700,1240,36,,,,,,,"missed the ductility values, incorrect processing (from AC to CR + A), grain size to 51",,,4.8,,214
137,J5,10.1016/j.actamat.2018.11.049,FeCoNiCrTi0.2,FCC,S,CR + A,,,,T,-196.0,860,1580,46,,,,,,,"missed the ductility values, incorrect processing (from AC to CR + A), grain size to 51",,,4.8,,214
144,J8,10.1016/j.jallcom.2018.08.176,CrFeNi2Al,FCC + BCC + B2,M,AC,,,,T,25.0,774,1357,6.4,,,,,,,,,,,,246
145,J8,10.1016/j.jallcom.2018.08.176,CrFeNi2.1Al0.9,FCC + BCC + B2,M,AC,,,,T,25.0,610,1173,9.1,,,,,,,,,,,,246
146,J8,10.1016/j.jallcom.2018.08.176,CrFeNi2.2Al0.8,FCC + BCC + B2,M,AC,,,,T,25.0,479,956,12.7,,,,,,,,,,,,246
147,J8,10.1016/j.jallcom.2018.08.176,CrFeNi2.3Al0.7,FCC + BCC + B2,M,AC,,,,T,25.0,461,835,30,,,,,,,,,,,,246
148,J8,10.1016/j.jallcom.2018.08.176,CrFeNi2.4Al0.6,FCC,S,AC,,,,T,25.0,441,757,45,,,,,,,,,,,,246
209,J27,10.1016/j.jallcom.2018.11.318,NbMoTaWVCr,BCC + Laves + oxide,M,SPS,1.24,,1010,C,25.0,3416,,5.3,,,,7946.0,,,Sintered @ 1500 C,,,,,147
210,J27,10.1016/j.jallcom.2018.11.318,NbMoTaWVCr,BCC + Laves + oxide,M,SPS,5.01,,991.3,C,25.0,3410,,2,,,,7946.0,,,Sintered @ 1600 C,,,,,147
211,J27,10.1016/j.jallcom.2018.11.318,NbMoTaWVCr,BCC + Laves + oxide,M,SPS,10.8,,988.3,C,25.0,3338,,1.9,,,,7946.0,,,Sintered @ 1700 C,,,,,147
212,J27,10.1016/j.jallcom.2018.11.318,NbMoTaWVCr,,,SPS,,,1010,C,25.0,3416,,5.3,,,,,,,,,,,,147
213,J27-28,10.1016/j.calphad.2015.09.007,NbMoTaWVCr,,,AC,,,704.6,C,25.0,,,,,,,,,,,28.0,10.1016/j.calphad.2015.09.007,,,148
214,J28,10.1016/j.vacuum.2018.12.009,CoCrCuFeNi,FCC + B2,M,AC,,,45.2,,,,,,,,,,,,note this is rockwell hardness ,,,,,149
215,J28,10.1016/j.vacuum.2018.12.009,Al0.5CoCrCuFeNi,FCC,S,AC,,,48.8,,,,,,,,,,,,note this is rockwell hardness ,,,,,149
216,J28,10.1016/j.vacuum.2018.12.009,AlCoCrCuFeNi,FCC + BCC,M,AC,,,73.8,,,,,,,,,,,,note this is rockwell hardness ,,,,,149
217,J28,10.1016/j.vacuum.2018.12.009,Al1.5CoCrCuFeNi,FCC + BCC,M,AC,,,75.1,,,,,,,,,,,,note this is rockwell hardness ,,,,,149
218,J28,10.1016/j.vacuum.2018.12.009,Al2CoCrCuFeNi,FCC + BCC,M,AC,,,77.5,,,,,,,,,,,,note this is rockwell hardness ,,,,,149
219,J29,10.1002/adma.201807142,VCoNi,,,CR+A,2.0 $\pm$ 1.5,,,T,25.0,991 $\pm$ 8,1359 $\pm$ 2.1,38 $\pm$ 0.5,,,,,,,changed processing from A to CR + A,,,,,150
220,J29,10.1002/adma.201807142,VCoNi,,S,CR+A,5.6 $\pm$ 3.1,,,T,25.0,767 $\pm$ 5,1224 $\pm$ 0.5,46 $\pm$ 0.1,,,,,,,changed processing from A to CR + A,,,,,150
221,J29,10.1002/adma.201807142,VCoNi,,,CR+A,18.7 $\pm$ 13.9,,,T,25.0,602 $\pm$ 7,1123 $\pm$ 8.0,51 $\pm$ 1.6,,,,,,,changed processing from A to CR + A,,,,,150
222,J29,10.1002/adma.201807142,VCoNi,,,CR+A,27.8 $\pm$ 19.5,,,T,25.0,517 $\pm$ 8,1049 $\pm$ 0.5,55 $\pm$ 1.5,,,,,,,changed processing from A to CR + A,,,,,150
223,J29,10.1002/adma.201807142,VCoNi,,,CR+A,122.2 $\pm$ 76.4,,,T,25.0,461 $\pm$ 6,886 $\pm$ 4.0,58 $\pm$ 0.1,,,,,,,changed processing from A to CR + A,,,,,150
224,J30,10.1016/j.actamat.2018.12.010,Al0.3CoCrFeNi,FCC + B2 + $\sigma$,M,CR+A,,,,T,25.0,840 $\pm$ 20,1039 $\pm$ 21,32 $\pm$ 4,,,,,,,,,,,,152
225,J30,10.1016/j.actamat.2018.12.010,Al0.3CoCrFeNi,FCC,M,CR+A,,,,T,25.0,159 $\pm$ 22,410 $\pm$ 42,65 $\pm$ 3,,,,,,,,,,,,152
226,J31,10.1016/j.scriptamat.2018.09.008,(Al18.6Fe34.2Co23.6Ni23.6)97.3C2.7,B2 + L12,M,AC,,,,C,25.0,1202,,32.6,,,,,,11067.0,Note: this alloy was intentionally designed to contain carbon,,,,,153
227,J32,10.1016/j.matchar.2018.07.015,HfNbTaTiZr,BCC,S,CR+A,,,,,,,,,,,,,,,Skipped,,,,,154
228,J33,10.1080/21663831.2018.1553803,Co25Cr25(FeNi)50,FCC,S,CR+A,14.9,,,T,25.0,214,612,77.3,,,,,,,changed processing from A to CR + A; added grain size,,,,,155
229,J33,10.1080/21663831.2018.1553803,Co35Cr25(FeNi)40,FCC,S,CR+A,11.6,,,T,25.0,241,721,96.2,,,,,,,changed processing from A to CR + A; added grain size,,,,,155
230,J33,10.1080/21663831.2018.1553803,Co45Cr25(FeNi)30,FCC,S,CR+A,10.5,,,T,25.0,299,841,76.1,,,,,,,changed processing from A to CR + A; added grain size,,,,,155
231,J33,10.1080/21663831.2018.1553803,Co55Cr25(FeNi)20,FCC  + HCP,M,CR+A,5.6,,,T,25.0,392,746,20.3,,,,,,,changed processing from A to CR + A; added grain size,,,,,155
232,J33,10.1080/21663831.2018.1553803,Co65Cr25(FeNi)10,FCC  + HCP,M,CR+A,6.2,,,T,25.0,482,857,13.3,,,,,,,changed processing from A to CR + A; added grain size,,,,,155
233,J34,10.1016/j.intermet.2019.04.003,NbHfZrTi,BCC,S,CR+A,,,,,,,,,,,69.7,,,,Youngs Modulus data,,,,,156
234,J34-58,10.1016/j.intermet.2014.11.005,NiCoCrFeMn,,,,,,,,,,,,,,202,,,,,58.0,10.1016/j.intermet.2014.11.005,,,157
235,J34-59,10.1557/adv.2017.76,NiCoCrFeMn,,,,,,,,,,,,,,202.2,,,,,59.0,10.1557/adv.2017.76,,,158
236,J34-60,10.1016/j.msea.2016.05.082,NiCoFeCr,,,,,,,,,,,,,,204,,,,,60.0,10.1016/j.msea.2016.05.082,,,159
237,J34-61,10.1016/j.msea.2017.04.003,NiCoFe,,,,,,,,,,,,,,174,,,,,61.0,10.1016/j.msea.2017.04.003,,,160
238,J34-62,10.1016/j.msea.2017.06.086,NiCoCr,,,,,,,,,,,,,,222,,,,,62.0,10.1016/j.msea.2017.06.086,,,161
239,J34-63, 10.1038/ncomms10602,NiCoCr,,,,,,,,,,,,,,229,,,,,63.0, 10.1038/ncomms10602,,,162
240,J34-61,10.1016/j.msea.2017.04.003,NiCoCr,,,,,,,,,,,,,,234,,,,,61.0,10.1016/j.msea.2017.04.003,,,160
241,J35,10.1016/j.actamat.2019.03.010,Al34Co17Cr34Cu0Fe5Ni10,,,,,,699 $\pm$ 37,,,,,,,,,,,,"No mechnical data, data mostly on HV",,,,not a review article ,163
242,J35,10.1016/j.actamat.2019.03.010,Al47Co14Cr15Cu5Fe13Ni6,,,,,,728 $\pm$ 42,,,,,,,,,,,,,,,,not a review article ,163
243,J35,10.1016/j.actamat.2019.03.010,Al38Co11Cr6Cu9Fe31Ni5,,,,,,604 $\pm$ 31,,,,,,,,,,,,,,,,not a review article ,163
244,J35,10.1016/j.actamat.2019.03.010,Al36Co10Cr31Cu6Fe9Ni8,,,,,,790 $\pm$ 41,,,,,,,,,,,,,,,,not a review article ,163
245,J35,10.1016/j.actamat.2019.03.010,Al43Co17Cr15Cu0Fe14Ni11,,,,,,806 $\pm$ 31,,,,,,,,,,,,,,,,not a review article ,163
246,J35,10.1016/j.actamat.2019.03.010,Al47Co12Cr12Cu5Fe13Ni11,,,,,,811 $\pm$ 31,,,,,,,,,,,,,,,,not a review article ,163
247,J35,10.1016/j.actamat.2019.03.010,Al43Co19Cr19Cu0Fe11Ni8,,,,,,855 $\pm$ 26,,,,,,,,,,,,,,,,not a review article ,163
248,J35,10.1016/j.actamat.2019.03.010,Al39Co10Cr31Cu5Fe8Ni7,,,,,,802 $\pm$ 18,,,,,,,,,,,,,,,,not a review article ,163
249,J35,10.1016/j.actamat.2019.03.010,Al47Co13Cr13Cu5Fe12Ni10,,,,,,799 $\pm$ 42,,,,,,,,,,,,,,,,not a review article ,163
250,J35,10.1016/j.actamat.2019.03.010,Al43Co20Cr22Cu0Fe8Ni7,,,,,,857 $\pm$ 43,,,,,,,,,,,,,,,,not a review article ,163
251,J35,10.1016/j.actamat.2019.03.010,Al47Co14Cr19Cu5Fe10Ni5,,,,,,855 $\pm$ 15,,,,,,,,,,,,,,,,not a review article ,163
252,J35,10.1016/j.actamat.2019.03.010,Al43Co20Cr19Cu0Fe9Ni9,,,,,,816 $\pm$ 37,,,,,,,,,,,,,,,,not a review article ,163
253,J35,10.1016/j.actamat.2019.03.010,Al46Co14Cr23Cu5Fe7Ni5,,,,,,811 $\pm$ 34,,,,,,,,,,,,,,,,not a review article ,163
254,J35,10.1016/j.actamat.2019.03.010,Al44Co14Cr22Cu5Fe9Ni6,,,,,,790 $\pm$ 48,,,,,,,,,,,,,,,,not a review article ,163
255,J35,10.1016/j.actamat.2019.03.010,Al43Co19Cr24Cu0Fe8Ni6,,,,,,855 $\pm$ 30,,,,,,,,,,,,,,,,not a review article ,163
256,J35,10.1016/j.actamat.2019.03.010,Al43Co18Cr24Cu0Fe10Ni5,,,,,,856 $\pm$ 53,,,,,,,,,,,,,,,,not a review article ,163
257,J35,10.1016/j.actamat.2019.03.010,Al47Co14Cr20Cu5Fe9Ni5,,,,,,859 $\pm$ 26,,,,,,,,,,,,,,,,not a review article ,163
258,J35,10.1016/j.actamat.2019.03.010,Al43Co24Cr22Cu0Fe5Ni6,,,,,,875 $\pm$ 58,,,,,,,,,,,,,,,,not a review article ,163
259,J35,10.1016/j.actamat.2019.03.010,Al43Co25Cr22Cu0Fe5Ni5,,,,,,865 $\pm$ 39,,,,,,,,,,,,,,,,not a review article ,163
260,J35,10.1016/j.actamat.2019.03.010,Al43Co24Cr23Cu0Fe5Ni5,,,,,,868 $\pm$ 45,,,,,,,,,,,,,,,,not a review article ,163
261,J35,10.1016/j.actamat.2019.03.010,Al43Co23Cr21Cu0Fe8Ni5,,,,,,863 $\pm$ 34,,,,,,,,,,,,,,,,not a review article ,163
262,J35,10.1016/j.actamat.2019.03.010,Al47Co12Cr20Cu5Fe11Ni5,,,,,,843 $\pm$ 52,,,,,,,,,,,,,,,,not a review article ,163
263,J35,10.1016/j.actamat.2019.03.010,Al43Co15Cr17Cu5Fe14Ni6,,,,,,794 $\pm$ 35,,,,,,,,,,,,,,,,not a review article ,163
264,J35,10.1016/j.actamat.2019.03.010,Al42Co10Cr30Cu5Fe7Ni6,,,,,,783 $\pm$ 27,,,,,,,,,,,,,,,,not a review article ,163
265,J35,10.1016/j.actamat.2019.03.010,Al47Co11Cr22Cu5Fe10Ni5,,,,,,797 $\pm$ 17,,,,,,,,,,,,,,,,not a review article ,163
266,J35,10.1016/j.actamat.2019.03.010,Al47Co13Cr20Cu5Fe10Ni5,,,,,,805 $\pm$ 24,,,,,,,,,,,,,,,,not a review article ,163
267,J35,10.1016/j.actamat.2019.03.010,Al29Co22Cr34Cu0Fe5Ni10,,,,,,699 $\pm$ 10,,,,,,,,,,,,,,,,not a review article ,163
268,J35,10.1016/j.actamat.2019.03.010,Al47Co7Cr16Cu9Fe16Ni5,,,,,,749 $\pm$ 26,,,,,,,,,,,,,,,,not a review article ,163
269,J35,10.1016/j.actamat.2019.03.010,Al43Co14Cr21Cu5Fe12Ni5,,,,,,828 $\pm$ 42,,,,,,,,,,,,,,,,not a review article ,163
270,J35,10.1016/j.actamat.2019.03.010,Al47Co18Cr15Cu5Fe10Ni5,,,,,,849 $\pm$ 37,,,,,,,,,,,,,,,,not a review article ,163
271,J35,10.1016/j.actamat.2019.03.010,Al47Co20Cr18Cu5Fe5Ni5,BCC+B2,M,,,,883 $\pm$ 22,,,,,,,,,,,,,,,,not a review article ,163
272,J35,10.1016/j.actamat.2019.03.010,Al43Co18Cr20Cu0Fe12Ni7,,,,,,864 $\pm$ 23,,,,,,,,,,,,,,,,not a review article ,163
273,J35,10.1016/j.actamat.2019.03.010,Al47Co17Cr16Cu5Fe10Ni5,,,,,,841 $\pm$ 37,,,,,,,,,,,,,,,,not a review article ,163
274,J35,10.1016/j.actamat.2019.03.010,Al43Co24Cr23Cu0Fe5Ni5,,,,,,868 $\pm$ 45,,,,,,,,,,,,,,,,not a review article ,163
275,J35,10.1016/j.actamat.2019.03.010,Al43Co25Cr22Cu0Fe5Ni5,,,,,,865 $\pm$ 39,,,,,,,,,,,,,,,,not a review article ,163
276,J35,10.1016/j.actamat.2019.03.010,Al46Co21Cr18Cu5Fe5Ni5,,,,,,840 $\pm$ 67,,,,,,,,,,,,,,,,not a review article ,163
277,J35,10.1016/j.actamat.2019.03.010,Al43Co22Cr22Cu0Fe8Ni5,,,,,,882 $\pm$ 22,,,,,,,,,,,,,,,,not a review article ,163
278,J35,10.1016/j.actamat.2019.03.010,Al43Co22Cr23Cu0Fe7Ni5,BCC+B2,M,,,,883 $\pm$ 47,,,,,,,,,,,,,,,,not a review article ,163
279,J35,10.1016/j.actamat.2019.03.010,Al43Co20Cr21Cu0Fe9Ni7,,,,,,828 $\pm$ 48,,,,,,,,,,,,,,,,not a review article ,163
280,J35,10.1016/j.actamat.2019.03.010,Al43Co22Cr25Cu0Fe5Ni5,,,,,,848 $\pm$ 27,,,,,,,,,,,,,,,,not a review article ,163
281,J35,10.1016/j.actamat.2019.03.010,Al47Co19Cr19Cu5Fe5Ni5,,,,,,878 $\pm$ 25,,,,,,,,,,,,,,,,not a review article ,163
282,J35,10.1016/j.actamat.2019.03.010,Al43Co29Cr18Cu0Fe5Ni5,,,,,,782 $\pm$ 49,,,,,,,,,,,,,,,,not a review article ,163
283,J36,10.1016/j.msea.2019.01.112,Co20.6Cr19.9Fe19.5Ni20.9Mn19.1,BCC,S,CR+A,,,,T,25.0,1290,1415,1.1,,,,,,,,,,,not a review article ,164
284,J36,10.1016/j.msea.2019.01.112,Co20.6Cr19.9Fe19.5Ni20.9Mn19.1,FCC + BCC + $\sigma$,M,CR+A,1.3 $\pm$ 0.7,,,T,25.0,1135,1260,1.8,,,,,,,fixed grain size; wrong unit,,,,,164
285,J36,10.1016/j.msea.2019.01.112,Co20.6Cr19.9Fe19.5Ni20.9Mn19.1,FCC + BCC + $\sigma$,M,CR+A,2 $\pm$ 0.9,,,T,25.0,585,815,31.7,,,,,,,fixed grain size; wrong unit,,,,,164
286,J36,10.1016/j.msea.2019.01.112,Co20.6Cr19.9Fe19.5Ni20.9Mn19.1,FCC + $\sigma$,M,CR+A,3.6 $\pm$ 1.7,,,T,25.0,425,735,40.2,,,,,,,fixed grain size; wrong unit,,,,,164
287,J36,10.1016/j.msea.2019.01.112,Co20.6Cr19.9Fe19.5Ni20.9Mn19.1,FCC,S,CR+A,17.1 $\pm$ 8.2,,,T,25.0,270,630,46.2,,,,,,,fixed grain size; wrong unit,,,,,164
288,J36,10.1016/j.msea.2019.01.112,Co20.6Cr19.9Fe19.5Ni20.9Mn19.1,,,CR,0.07,,,T,25.0,1120,1175,1.5,,,,,,,added grain size from text,,,,,164
289,J38,10.1016/j.actamat.2019.06.032,Al0.4Hf0.6NbTaTiZr,BCC,S,HIP+A,,,,C,23.0,1841,,,,,,,,,noted grain size greater than 100um,,,9.08,not a review article,165
290,J38,10.1016/j.actamat.2019.06.032,AlCrMoTi,BCC,S,A,,,,C,23.0,1100,,,,,,,,,noted grain size greater than 100um,,,5.98,not a review article,165
291,J38,10.1016/j.actamat.2019.06.032,AlMoNbTi,BCC,S,A,,,,C,23.0,1100,,,,,,,,,noted grain size greater than 100um,,,6.46,not a review article,165
292,J38,10.1016/j.actamat.2019.06.032,HfMo0.5NbTiV0.5,BCC,S,AC,,,,C,23.0,1260,,,,,,,,,noted grain size greater than 100um,,,8.96,not a review article,165
293,J38,10.1016/j.actamat.2019.06.032,HfMoNbTaTiZr,BCC,S,AC,,,,C,23.0,1512,,,,,,,,,noted grain size greater than 100um,,,9.93,not a review article,165
294,J38,10.1016/j.actamat.2019.06.032,HfMoNbTiZr,BCC,S,AC,,,,C,23.0,1575,,,,,,,,,noted grain size greater than 100um,,,8.68,not a review article,165
295,J38,10.1016/j.actamat.2019.06.032,HfMoTaTiZr,BCC,S,AC,,,,C,23.0,1600,,,,,,,,,noted grain size greater than 100um,,,10.18,not a review article,165
296,J38,10.1016/j.actamat.2019.06.032,HfNbTaTiZr,BCC,S,HIP+A,,,,C,23.0,929,,,,,,,,,noted grain size greater than 100um,,,9.89,not a review article,165
297,J38,10.1016/j.actamat.2019.06.032,MoNbTaTiVW,BCC,S,AC,,,,C,23.0,1515,,,,,,,,,noted grain size greater than 100um,,,10.91,not a review article,165
298,J38,10.1016/j.actamat.2019.06.032,MoNbTaTiW,BCC,S,AC,,,,C,23.0,1343,,,,,,,,,noted grain size greater than 100um,,,11.72,not a review article,165
299,J38,10.1016/j.actamat.2019.06.032,MoNbTaVW,BCC,S,HIP+A,,,,C,23.0,1246,,,,,,,,,noted grain size greater than 100um,,,12.29,not a review article,165
300,J38,10.1016/j.actamat.2019.06.032,MoNbTaW,BCC,S,HIP+A,,,,C,23.0,996,,,,,,,,,noted grain size greater than 100um,,,13.6,not a review article,165
301,J38,10.1016/j.actamat.2019.06.032,MoNbTi,BCC,S,HIP+A,,,,C,23.0,1100,,,,,,,,,noted grain size greater than 100um,,,7.67,not a review article,165
302,J38,10.1016/j.actamat.2019.06.032,NbTa0.3TiZr,BCC,S,HIP+A,,,,C,23.0,882,,,,,,,,,noted grain size greater than 100um,,,7.81,not a review article,165
303,J38,10.1016/j.actamat.2019.06.032,NbTiZr,BCC,S,HIP+A,,,,C,23.0,975,,,,,,,,,noted grain size greater than 100um,,,6.63,not a review article,165
304,J38,10.1016/j.actamat.2019.06.032,AlCrMoNbTi,BCC + Laves,M,A,,,,C,23.0,1010,,,,,,,,,noted grain size greater than 100um,,,6.56,not a review article,165
305,J38,10.1016/j.actamat.2019.06.032,Al0.24NbTiVZr,BCC + Laves,M,HIP+A,,,,C,23.0,1240,,,,,,,,,noted grain size greater than 100um,,,6.34,not a review article,165
306,J38,10.1016/j.actamat.2019.06.032,AlMo0.5NbTa0.5TiZr,B2 + BCC,M,HIP+A,,,,C,23.0,2000,,,,,,,,,noted grain size greater than 100um,,,7.14,not a review article,165
307,J38,10.1016/j.actamat.2019.06.032,Cr03NbTiZr,BCC + Laves,M,HIP+A,,,,C,23.0,1576,,,,,,,,,noted grain size greater than 100um,,,6.56,not a review article,165
308,J38,10.1016/j.actamat.2019.06.032,CrMo0.5NbTa0.5TiZr,BCC +BCC + Laves,M,HIP+A,,,,C,23.0,1595,,,,,,,,,noted grain size greater than 100um,,,7.98,not a review article,165
309,J38,10.1016/j.actamat.2019.06.032,HfMo0.5NbSi0.3TiV0.5,BCC + M5Si3,M,AC,,,,C,23.0,1617,,,,,,,,,noted grain size greater than 100um,,,8.46,not a review article,165
310,J38,10.1016/j.actamat.2019.06.032,HfMo0.5NbSi0.5TiV0.5,BCC + M5Si3,M,AC,,,,C,23.0,1787,,,,,,,,,noted grain size greater than 100um,,,8.16,not a review article,165
311,J38,10.1016/j.actamat.2019.06.032,HfMo0.5NbSi0.7TiV0.5,BCC + M5Si3,M,AC,,,,C,23.0,2134,,,,,,,,,noted grain size greater than 100um,,,7.89,not a review article,165
312,J38,10.1016/j.actamat.2019.06.032,MoNbTiVZr,BCC +Laves,M,HIP+A,,,,C,23.0,1706,,,,,,,,,noted grain size greater than 100um,,,7.27,not a review article,165
313,J38,10.1016/j.actamat.2019.06.032,NbRe0.3TiZr,BCC +Laves,M,HIP+A,,,,C,23.0,1244,,,,,,,,,noted grain size greater than 100um,,,7.81,not a review article,165
314,J38,10.1016/j.actamat.2019.06.032,NbTaTiVZr,BCC + BCC,M,HIP+A,,,,C,23.0,1395,,,,,,,,,noted grain size greater than 100um,,,8.43,not a review article,165
315,J38,10.1016/j.actamat.2019.06.032,Al0.4Hf0.6NbTaTiZr,BCC,S,HIP+A,,,,C,1000.0,298,,,,,,,,,noted grain size greater than 100um,,,9.08,not a review article,165
316,J38,10.1016/j.actamat.2019.06.032,AlCrMoTi,BCC,S,A,,,,C,1000.0,375,,,,,,,,,noted grain size greater than 100um,,,5.98,not a review article,165
317,J38,10.1016/j.actamat.2019.06.032,AlMoNbTi,BCC,S,A,,,,C,1000.0,540,,,,,,,,,noted grain size greater than 100um,,,6.46,not a review article,165
318,J38,10.1016/j.actamat.2019.06.032,HfMo0.5NbTiV0.5,BCC,S,AC,,,,C,1000.0,368,,,,,,,,,noted grain size greater than 100um,,,8.96,not a review article,165
319,J38,10.1016/j.actamat.2019.06.032,HfMoNbTaTiZr,BCC,S,AC,,,,C,1000.0,814,,,,,,,,,noted grain size greater than 100um,,,9.93,not a review article,165
320,J38,10.1016/j.actamat.2019.06.032,HfMoNbTiZr,BCC,S,AC,,,,C,1000.0,635,,,,,,,,,noted grain size greater than 100um,,,8.68,not a review article,165
321,J38,10.1016/j.actamat.2019.06.032,HfMoTaTiZr,BCC,S,AC,,,,C,1000.0,855,,,,,,,,,noted grain size greater than 100um,,,10.18,not a review article,165
322,J38,10.1016/j.actamat.2019.06.032,HfNbTaTiZr,BCC,S,HIP+A,,,,C,1000.0,295,,,,,,,,,noted grain size greater than 100um,,,9.89,not a review article,165
323,J38,10.1016/j.actamat.2019.06.032,MoNbTaTiVW,BCC,S,AC,,,,C,1000.0,753,,,,,,,,,noted grain size greater than 100um,,,10.91,not a review article,165
324,J38,10.1016/j.actamat.2019.06.032,MoNbTaTiW,BCC,S,AC,,,,C,1000.0,620,,,,,,,,,noted grain size greater than 100um,,,11.72,not a review article,165
325,J38,10.1016/j.actamat.2019.06.032,MoNbTaVW,BCC,S,HIP+A,,,,C,1000.0,842,,,,,,,,,noted grain size greater than 100um,,,12.29,not a review article,165
326,J38,10.1016/j.actamat.2019.06.032,MoNbTaW,BCC,S,HIP+A,,,,C,1000.0,548,,,,,,,,,noted grain size greater than 100um,,,13.6,not a review article,165