,REFERENCE: tag,REFERENCE: doi,FORMULA,PROPERTY: Type of phases,PROPERTY: Single/Multiphase,PROPERTY: synthesis method,PROPERTY: grain size ($\mu$m),PROPERTY: ROM Density (g/cm$^3$),PROPERTY: HV,PROPERTY: Type of test,PROPERTY: Test temperature ($^\circ$C),PROPERTY: YS (MPa),PROPERTY: UTS (MPa),PROPERTY: Elongation (%),PROPERTY: Elongation plastic (%),PROPERTY: ROM Young modulus (GPa),PROPERTY: Exp. Young modulus (GPa),PROPERTY: O content (wppm),PROPERTY: N content (wppm),PROPERTY: C content (wppm),REFERENCE: comment,Internal Reference #,Original DOI,PROPERTY: Exp. Density (g/cm$^3$),Unnamed: 22,IDENTIFIER: Reference ID
0,4,10.1016/j.jmmm.2014.07.023,Al0.25CoFeNi,FCC,S,AC,,7.9,138.0,C,25.0,158.0,,,,196.0,,,,,,,,,,28
1,4,10.1016/j.jmmm.2014.07.023,Al0.5CoFeNi,FCC+BCC,M,AC,,7.4,212.0,C,25.0,346.0,,,,187.0,,,,,,,,,,28
2,4,10.1016/j.jmmm.2014.07.023,Al0.75CoFeNi,FCC+BCC,M,AC,,7.0,385.0,C,25.0,794.0,,,,179.0,,,,,,,,,,28
3,4,10.1016/j.jmmm.2014.07.023,AlCoFeNi,BCC,S,AC,,6.6,456.0,C,25.0,964.0,,,,173.0,,,,,,,,,,28
4,4,10.1016/j.jmmm.2014.07.023,CoFeNi,FCC,S,AC,,8.5,125.0,C,25.0,204.0,,,,207.0,,,,,,,,,,28
5,4,10.1016/j.jmmm.2014.07.023,CoFeNi,FCC,S,AC,,8.5,125.0,C,25.0,209.0,,,,207.0,,,,,,,,,,28
6,4,10.1016/j.jmmm.2014.07.023,CoFeNiSi0.25,FCC,S,AC,,7.7,149.0,C,25.0,196.0,,,,194.0,,,,,,,,,,28
7,4,10.1016/j.jmmm.2014.07.023,CoFeNiSi0.5,FCC+Ni3Si,M,AC,,7.1,287.0,C,25.0,476.0,,,,,,,,,,,,,,28
8,4,10.1016/j.jmmm.2014.07.023,CoFeNiSi0.75,FCC+Ni3Si,M,AC,,6.6,570.0,C,25.0,1301.0,,,,,,,,,,,,,,28
9,5,10.1016/j.actamat.2014.08.026,CoCrFeNi,FCC,S,CR,24,8.2,,T,25.0,274.0,708.0,39,,225.0,,,,,elongation is total,,,,,38
10,5,10.1016/j.actamat.2014.08.026,CoCrMnNi,FCC,S,CR,36,8.1,,T,25.0,282.0,694.0,44,,222.0,,,,,elongation is total,,,,,38
11,5,10.1016/j.actamat.2014.08.026,CoCrNi,FCC,S,CR,41,8.3,,T,25.0,300.0,860.0,60,,229.0,,,,,elongation is total,,,,,38
12,5,10.1016/j.actamat.2014.08.026,CoFeMnNi,FCC,S,CR,48,8.2,,T,25.0,170.0,550.0,41,,205.0,,,,,elongation is total,,,,,38
13,5,10.1016/j.actamat.2014.08.026,CoFeNi,FCC,S,CR,28,8.5,,T,25.0,211.0,513.0,31,,207.0,,,,,elongation is total,,,,,38
14,5,10.1016/j.actamat.2014.08.026,CoMnNi,FCC,S,CR,32,8.4,,T,25.0,231.0,653.0,38,,202.0,,,,,elongation is total,,,,,38
15,5,10.1016/j.actamat.2014.08.026,FeMnNi,FCC,S,CR,30,8.1,,T,25.0,221.0,602.0,36,,203.0,,,,,elongation is total,,,,,38
16,6,10.1016/j.intermet.2015.01.004,CoCrFeNb0.103Ni,FCC+Laves (C14),M,AC,150-200,8.2,,T,25.0,318.0,622.0,19,,,,,,,all YS recorded as +1 MPa,,,,,47
17,6,10.1016/j.intermet.2015.01.004,CoCrFeNb0.155Ni,FCC+Laves (C14),M,AC,150-200,8.2,,T,25.0,322.0,744.0,23,,,,,,,all YS recorded as +1 MPa,,,,,47
18,6,10.1016/j.intermet.2015.01.004,CoCrFeNb0.206Ni,FCC+Laves (C14),M,AC,150-200,8.2,,T,25.0,403.0,807.0,9,,,,,,,all YS recorded as +1 MPa,,,,,47
19,6,10.1016/j.intermet.2015.01.004,CoCrFeNb0.309Ni,FCC+Laves (C14),M,AC,150-200,8.2,,T,25.0,479.0,879.0,4,,,,,,,all YS recorded as +1 MPa,,,,,47
20,6,10.1016/j.intermet.2015.01.004,CoCrFeNb0.412Ni,FCC+Laves (C14),M,AC,150-200,8.2,,T,25.0,638.0,1004.0,1,,,,,,,all YS recorded as +1 MPa,,,,,47
21,6,10.1016/j.intermet.2015.01.004,CoCrFeNi,FCC,S,AC,150-200,8.2,,T,25.0,148.0,413.0,48,,225.0,,,,,all YS recorded as +1 MPa,,,,,47
22,7,10.1016/j.jallcom.2009.08.090,Al0.25CoCrFeNi,FCC,S,A,,7.7,110.0,,25.0,,,,,216.0,,,,,,,,,,55
23,7,10.1016/j.jallcom.2009.08.090,Al0.25CoCrFeNi,FCC,S,A,,7.7,113.0,,25.0,,,,,216.0,,,,,,,,,,55
24,7,10.1016/j.jallcom.2009.08.090,Al0.375CoCrFeNi,FCC,S,A,,7.5,131.0,,25.0,,,,,211.0,,,,,,,,,,55
25,7,10.1016/j.jallcom.2009.08.090,Al0.375CoCrFeNi,FCC,S,A,,7.5,196.0,,25.0,,,,,211.0,,,,,,,,,,55
26,7,10.1016/j.jallcom.2009.08.090,Al0.5CoCrFeNi,FCC+BCC,M,A,,7.3,159.0,,25.0,,,,,208.0,,,,,,,,,,55
27,7,10.1016/j.jallcom.2009.08.090,Al0.5CoCrFeNi,FCC+BCC,M,A,,7.3,209.0,,25.0,,,,,208.0,,,,,,,,,,55
28,7,10.1016/j.jallcom.2009.08.090,Al0.75CoCrFeNi,FCC+BCC,M,A,,7.0,388.0,,25.0,,,,,200.0,,,,,,,,,,55
29,7,10.1016/j.jallcom.2009.08.090,Al0.75CoCrFeNi,FCC+BCC,M,A,,7.0,280.0,,25.0,,,,,200.0,,,,,,,,,,55
30,7,10.1016/j.jallcom.2009.08.090,Al0.875CoCrFeNi,BCC,S,A,,6.9,538.0,,25.0,,,,,197.0,,,,,,,,,,55
31,7,10.1016/j.jallcom.2009.08.090,Al0.875CoCrFeNi,FCC+BCC,M,A,,6.9,361.0,,25.0,,,,,197.0,,,,,,,,,,55
32,7,10.1016/j.jallcom.2009.08.090,Al1.25CoCrFeNi,BCC,S,A,,6.5,487.0,,25.0,,,,,188.0,,,,,,,,,,55
33,7,10.1016/j.jallcom.2009.08.090,Al1.25CoCrFeNi,BCC,S,A,,6.5,499.0,,25.0,,,,,188.0,,,,,,,,,,55
34,7,10.1016/j.jallcom.2009.08.090,Al1.5CoCrFeNi,BCC,S,A,,6.2,484.0,,25.0,,,,,183.0,,,,,,,,,,55
35,7,10.1016/j.jallcom.2009.08.090,Al1.5CoCrFeNi,BCC,S,A,,6.2,517.0,,25.0,,,,,183.0,,,,,,,,,,55
36,7,10.1016/j.jallcom.2009.08.090,Al2CoCrFeNi,BCC,S,A,,5.9,509.0,,25.0,,,,,173.0,,,,,,,,,,55
37,7,10.1016/j.jallcom.2009.08.090,Al2CoCrFeNi,BCC,S,A,,5.9,512.0,,25.0,,,,,173.0,,,,,,,,,,55
38,7,10.1016/j.jallcom.2009.08.090,AlCoCrFeNi,BCC,S,A,,6.7,484.0,,25.0,,,,,194.0,,,,,,,,,,55
39,7,10.1016/j.jallcom.2009.08.090,AlCoCrFeNi,FCC+BCC,M,A,,6.7,433.0,,25.0,,,,,194.0,,,,,,,,,,55
40,7,10.1016/j.jallcom.2009.08.090,CoCrFeNi,FCC,S,A,,8.2,116.0,,25.0,,,,,225.0,,,,,,,,,,55
41,7,10.1016/j.jallcom.2009.08.090,CoCrFeNi,FCC,S,A,,8.2,113.0,,25.0,,,,,225.0,,,,,,,,,,55
42,8,10.1007/s11837-013-0753-6,Al0.5CoCrFeMo0.5Ni,FCC+Sigma,M,AC,,7.7,425.0,,25.0,,,,,,,,,,,,,,,64
43,8,10.1007/s11837-013-0753-6,Al1.5CoCrFeMo0.5Ni,B2+Sigma,M,AC,,6.6,655.0,,25.0,,,,,,,,,,,,,,,64
44,8,10.1007/s11837-013-0753-6,Al2CoCrFeMo0.5Ni,BCC + B2,S,AC,,6.3,605.0,,25.0,,,,,185.0,,,,,,,,,,64
45,8,10.1007/s11837-013-0753-6,AlCoCrFeMo0.5Ni,B2+Sigma,M,AC,,7.1,715.0,,25.0,,,,,,,,,,,,,,,64
46,8,10.1007/s11837-013-0753-6,CoCrFeMo0.5Ni,FCC+Sigma,M,AC,,8.5,210.0,,25.0,,,,,,,,,,,,,,,64
47,9,10.1016/j.msea.2008.12.053,Al0.5CoCrFeNiTi,BCC+Laves,M,AC,,6.6,,C,25.0,,1600.0,,10.0,,107.0,,,,elongation is plastic ,,,,,67
48,9,10.1016/j.msea.2008.12.053,Al1.5CoCrFeNiTi,BCC + BCC,S,AC,,5.9,,C,25.0,,2110.0,,10.0,,133.0,,,,elongation is plastic ,,,,,67
49,9,10.1016/j.msea.2008.12.053,Al2CoCrFeNiTi,BCC + BCC,S,AC,,5.6,643.0,C,25.0,,1030.0,,5.0,,94.0,,,,elongation is plastic ,,,,,67
50,9,10.1016/j.msea.2008.12.053,AlCoCrFeNiTi,BCC+Laves,M,AC,0.1-0.2,6.2,,C,25.0,,2280.0,,6.0,,148.0,,,,elongation is plastic ,,,,,67
51,9,10.1016/j.msea.2008.12.053,CoCrFeNiTi,FCC,S,AC,,7.2,,C,25.0,,2020.0,,9.0,,135.0,,,,elongation is plastic ,,,,,67
87,21,10.1002/adem.200900171,Al0.8CoCrCuFeNi,FCC+BCC,M,AC,,7.3,270.0,,25.0,,,,,187.0,,,,,,,,,,10
88,21,10.1002/adem.200900171,AlCo0.5CrFeMo0.5Ni,BCC+sigma,M,AC,,7.0,801.0,,25.0,,,,,,,,,,,,,,,10
89,21,10.1002/adem.200900171,AlCo1.5CrFeMo0.5Ni,BCC+sigma,M,AC,,7.2,741.0,,25.0,,,,,,,,,,,,,,,10
90,21,10.1002/adem.200900171,AlCo2CrFeMo0.5Ni,FCC+BCC+sigma,M,AC,200,7.3,586.0,,25.0,,,,,,,,,,,,,,,10
91,21,10.1002/adem.200900171,AlCoCrFeMo0.5Ni,BCC+sigma,M,AC,,7.1,796.0,,25.0,,,,,,,,,,,,,,,10
92,22,10.1016/j.wear.2009.10.013,AlCoCrFe1Mo0.5Ni,BCC+sigma,M,AC,,7.0,755.0,,25.0,,,,,,,,,,edited the composition from 0.5 to 1,,,,,11
93,22,10.1016/j.wear.2009.10.013,AlCoCrFe0.6Mo0.5Ni,BCC+sigma,M,AC,,7.1,754.0,,25.0,,,,,,,,,,,,,,,11
94,22,10.1016/j.wear.2009.10.013,AlCoCrFe1.5Mo0.5Ni,BCC+sigma,M,AC,,7.2,635.0,,25.0,,,,,,,,,,,,,,,11
95,22,10.1016/j.wear.2009.10.013,AlCoCrFe2Mo0.5Ni,BCC+sigma,M,AC,,7.2,639.0,,25.0,,,,,,,,,,,,,,,11
96,23,10.1016/j.intermet.2012.09.008,AlCoCrFeMo0.5,B2 + omega,M,AC,,6.8,857.0,,25.0,,,,,,,,,,changed from BCC to B2,,,,,12
97,23,10.1016/j.intermet.2012.09.008,AlCoCrFeMo0.5Ni,B2 + omega,M,AC,,7.1,730.0,,25.0,,,,,,,,,,changed from BCC to B2,,,,,12
98,23,10.1016/j.intermet.2012.09.008,AlCoCrFeMo0.5Ni0.5,B2 + omega,M,AC,,7.0,708.0,,25.0,,,,,,,,,,changed from BCC to B2,,,,,12
99,23,10.1016/j.intermet.2012.09.008,AlCoCrFeMo0.5Ni1.5,FCC+B2 + omega,M,AC,,7.2,586.0,,25.0,,,,,,,,,,changed from BCC to B2,,,,,12
100,23,10.1016/j.intermet.2012.09.008,AlCoCrFeMo0.5Ni2,FCC+B2 + omega,M,AC,,7.4,395.0,,25.0,,,,,,,,,,changed from BCC to B2,,,,,12
101,24,10.1016/j.msea.2010.07.049,AlCoCrFeNi,BCC,S,AC,,5.7,,C,25.0,1110.0,,,,169.0,,,,,,,,,,13
102,24,10.1016/j.msea.2010.07.049,AlCoCrFeNiSi,BCC+Im,M,AC,,5.7,,C,25.0,2411.0,2950.0,,1.0,,,,,,"plastic strain, stress strain curves not provided",,,,,13
103,24,10.1016/j.msea.2010.07.049,AlCoCrFeNiSi0.2,BCC,S,AC,,6.5,,C,25.0,1265.0,2173.0,,14.0,188.0,,,,,,,,,,13
104,24,10.1016/j.msea.2010.07.049,AlCoCrFeNiSi0.4,BCC,S,AC,,6.2,,C,25.0,1481.0,2444.0,,13.0,183.0,,,,,,,,,,13
105,24,10.1016/j.msea.2010.07.049,AlCoCrFeNiSi0.6,BCC,S,AC,,6.0,,C,25.0,1834.0,2195.0,,3.0,178.0,,,,,,,,,,13
106,24,10.1016/j.msea.2010.07.049,AlCoCrFeNiSi0.8,BCC+Im,M,AC,,5.8,,C,25.0,2179.0,2664.0,,2.0,,,,,,,,,,,13
107,25,10.1016/j.jallcom.2008.11.059,Al0.25CoCrCu0.5FeNiTi0.5,FCC,S,AC,,7.4,,,25.0,,,,,198.0,,,,,,,,,,14
108,25,10.1016/j.jallcom.2008.11.059,Al0.25CoCrCu0.75FeNiTi0.5,FCC,S,AC,,7.5,,C,25.0,750.0,1970.0,,39.0,,103.0,,,,"plastic strain, stress strain curves not provided",,,,,14
109,25,10.1016/j.jallcom.2008.11.059,Al0.5CoCrCu0.5FeNiTi0.5,FCC+BCC,M,AC,,7.1,,C,25.0,1580.0,2389.0,,17.0,,161.0,,,,,,,,,14
110,25,10.1016/j.jallcom.2008.11.059,Al0.75CoCrCu0.25FeNiTi0.5,FCC+BCC,M,AC,,6.8,,C,25.0,1900.0,2697.0,,12.0,,164.0,,,,,,,,,14
111,25,10.1016/j.jallcom.2008.11.059,CoCrCuFeNiTi0.5,FCC,S,AC,,7.8,,C,25.0,700.0,1650.0,,29.0,,93.0,,,,,,,,,14
112,26,10.1063/1.2734517,AlCoCrFeNiTi,BCC+BCC,M,AC,,6.2,,C,25.0,1860.0,2580.0,10.7,9.0,,90.0,,,,"plastic strain, also provided elastic strain, added together for total",,,,,15
113,26,10.1063/1.2734517,AlCoCrFeNiTi0.5,BCC+BCC,M,AC,,6.4,178.0,C,25.0,2260.0,3140.0,24.4,23.0,,178.0,,,,,,,,,15
114,26,10.1063/1.2734517,AlCoCrFeNiTi1.5,BCC+Laves (C14),M,AC,,6.1,,C,25.0,2220.0,2720.0,6.6,5.0,,160.0,,,,,,,,,15
115,27,10.1002/adem.200300567,AlCoCrFeNiTiVZr,,,AC,,6.3,780.0,,25.0,,,,,,,,,,,,,,,16
116,27,10.1002/adem.200300567,AlCoFeNiTiVZr,BCC,S,AC,,6.2,790.0,,25.0,,,,,143.0,,,,,,,,,,16
117,27,10.1002/adem.200300567,AlFeNiTiVZr,BCC,S,AC,,5.9,800.0,,25.0,,,,,132.0,,,,,,,,,,16
118,27,10.1002/adem.200300567,CoCrCuFeNiTiVZr,,,AC,,7.1,680.0,,25.0,,,,,168.0,,,,,,,,,,16
119,27,10.1002/adem.200300567,CoCrFeMoNiTiVZr,,,AC,,7.3,850.0,,25.0,,,,,193.0,,,,,,,,,,16
120,27,10.1002/adem.200300567,CoCuFeNiTiVZr,,,AC,,7.1,630.0,,25.0,,,,,,,,,,,,,,,16
121,27,10.1002/adem.200300567,CoFeMoNiTiVZr,,,AC,,7.3,790.0,,25.0,,,,,,,,,,,,,,,16
122,27,10.1002/adem.200300567,CuFeNiTiVZr,,,AC,,6.8,590.0,,25.0,,,,,142.0,,,,,,,,,,16
123,27,10.1002/adem.200300567,FeMoNiTiVZr,BCC+Im,M,AC,,7.1,740.0,,25.0,,,,,,,,,,,,,,,16
124,28,10.1016/j.actamat.2013.09.037,Al0.10CoCrFeMnNi,FCC,S,AC,,7.9,180.0,,25.0,,,,,216.0,,,,,,,,,,17
125,28,10.1016/j.actamat.2013.09.037,Al0.20CoCrFeMnNi,FCC,S,AC,,7.7,171.0,T,25.0,220.0,,56,,214.0,,,,,total elongation ,,,,,17
126,28,10.1016/j.actamat.2013.09.037,Al0.38CoCrFeMnNi,FCC,S,AC,,7.5,182.0,T,25.0,244.0,,45,,209.0,,,,,,,,,,17
127,28,10.1016/j.actamat.2013.09.037,Al0.43CoCrFeMnNi,FCC+BCC,M,AC,,7.4,183.0,T,25.0,285.0,,35,,208.0,,,,,,,,,,17
128,28,10.1016/j.actamat.2013.09.037,Al0.49CoCrFeMnNi,FCC+BCC,M,AC,,7.4,220.0,T,25.0,331.0,,29,,206.0,,,,,,,,,,17
129,28,10.1016/j.actamat.2013.09.037,Al0.56CoCrFeMnNi,FCC+BCC,M,AC,,7.3,278.0,T,25.0,526.0,,16,,204.0,,,,,,,,,,17
130,28,10.1016/j.actamat.2013.09.037,Al0.62CoCrFeMnNi,FCC+BCC,M,AC,,7.2,405.0,T,25.0,833.0,,5,,203.0,,,,,,,,,,17
131,28,10.1016/j.actamat.2013.09.037,Al0.68CoCrFeMnNi,FCC+BCC,M,AC,,7.2,486.0,,25.0,,,,,202.0,,,,,,,,,,17
132,28,10.1016/j.actamat.2013.09.037,Al0.75CoCrFeMnNi,FCC+BCC,M,AC,,7.1,530.0,,25.0,,,,,200.0,,,,,,,,,,17
133,28,10.1016/j.actamat.2013.09.037,Al0.81CoCrFeMnNi,FCC+BCC,M,AC,,7.0,539.0,,25.0,,,,,199.0,,,,,,,,,,17
134,28,10.1016/j.actamat.2013.09.037,Al0.88CoCrFeMnNi,FCC+BCC,M,AC,,7.0,533.0,,25.0,,,,,197.0,,,,,,,,,,17
135,28,10.1016/j.actamat.2013.09.037,Al0.95CoCrFeMnNi,FCC+BCC,M,AC,,6.9,535.0,,25.0,,,,,196.0,,,,,,,,,,17
136,28,10.1016/j.actamat.2013.09.037,Al1.25CoCrFeMnNi,BCC,S,AC,,6.6,539.0,,25.0,,,,,190.0,,,,,,,,,,17
137,28,10.1016/j.actamat.2013.09.037,CoCrFeMnNi,FCC,S,AC,,8.0,176.0,T,25.0,208.0,,62,,219.0,,,,,,,,,,17
138,29,10.1016/j.jallcom.2014.12.157,CoCrFeMnNi,FCC,S,AC,300,8.0,144.0,C,25.0,,,,,,,,,,"plastic strain (called fracture strain, labeled e)",,,,,18
139,29,10.1016/j.jallcom.2014.12.157,CoCrFeMnNi,FCC,S,A,350,8.0,135.0,C,25.0,230.0,,,75.0,219.0,,,,,,,,,,18
140,29,10.1016/j.jallcom.2014.12.157,CoCrFeMnNiV0.25,FCC,S,AC,120,7.9,151.0,C,25.0,,,,,,,,,,,,,,,18
141,29,10.1016/j.jallcom.2014.12.157,CoCrFeMnNiV0.25, FCC + sigma,S,A,130,7.9,144.0,C,25.0,200.0,,,75.0,215.0,,,,,added sigma,,,,,18
142,29,10.1016/j.jallcom.2014.12.157,CoCrFeMnNiV0.5,FCC,S,AC,220,7.8,186.0,C,25.0,,,,,,,,,,,,,,,18
143,29,10.1016/j.jallcom.2014.12.157,CoCrFeMnNiV0.5,FCC,S,A,250,7.8,275.0,C,25.0,620.0,,,75.0,211.0,,,,,,,,,,18
144,29,10.1016/j.jallcom.2014.12.157,CoCrFeMnNiV0.75,FCC+sigma,M,A,500,7.7,380.0,C,25.0,740.0,1325.0,,7.8,,,,,,,,,,,18
145,29,10.1016/j.jallcom.2014.12.157,CoCrFeMnNiV0.75,FCC+sigma,M,AC,500,7.7,342.0,C,25.0,,,,,,,,,,,,,,,18
146,29,10.1016/j.jallcom.2014.12.157,CoCrFeMnNiV1.0,FCC+sigma,M,A,12,7.7,636.0,C,25.0,1660.0,1845.0,,0.5,,,,,,,,,,,18
147,29,10.1016/j.jallcom.2014.12.157,CoCrFeMnNiV1.0,FCC+sigma,M,AC,,7.7,650.0,C,25.0,,,,,,,,,,,,,,,18
148,30,10.1016/j.msea.2010.05.052,Al0.3CrFe1.5MnNi0.5,FCC+BCC,M,AC,,7.2,297.0,,25.0,,,,,213.0,,,,,,,,,,19
149,30,10.1016/j.msea.2010.05.052,Al0.5CrFe1.5MnNi0.5,BCC,S,AC,,7.0,396.0,,25.0,,,,,206.0,,,,,,,,,,19
150,31,10.1016/j.jallcom.2013.03.253,AlCrFeNi,BCC + B2,M,AC,,6.3,472.0,C,25.0,1406.0,2927.0,,29.0,190.0,,,,,plastic strain; added B2,,,,,20
151,31,10.1016/j.jallcom.2013.03.253,AlCrFeNiMo,B2+sigma,M,AC,,7.2,905.0,,25.0,,,,,,,,,,changed BCC to B2,,,,,20
152,31,10.1016/j.jallcom.2013.03.253,AlCrFeNiMo0.2,BCC + B2,M,AC,,6.5,549.0,C,25.0,1487.0,3222.0,,29.0,197.0,,,,,added B2,,,,,20
153,31,10.1016/j.jallcom.2013.03.253,AlCrFeNiMo0.5,BCC + B2,M,AC,,6.8,622.0,C,25.0,1749.0,2644.0,,13.0,205.0,,,,,added B2,,,,,20
154,31,10.1016/j.jallcom.2013.03.253,AlCrFeNiMo0.8,B2+sigma,M,AC,,7.0,854.0,C,25.0,1513.0,1513.0,,0.0,,,,,,changed BCC to B2,,,,,20
155,32,10.3166/acsm.31.633-648,Al0.3CoCrCuFe,FCC,S,,,7.7,180.0,,25.0,,,,,194.0,,,,,,,,,,21
156,32,10.3166/acsm.31.633-648,Al0.5CoCrCuFe,FCC,S,,,7.4,207.0,,25.0,,,,,187.0,,,,,,,,,,21
157,32,10.3166/acsm.31.633-648,Al0.8CoCrCuFe,FCC+BCC,M,,,7.0,271.0,,25.0,,,,,177.0,,,,,,,,,,21
158,32,10.3166/acsm.31.633-648,Al1.3CoCrCuFe,FCC+BCC,M,,,6.5,476.0,,25.0,,,,,165.0,,,,,,,,,,21
159,32,10.3166/acsm.31.633-648,Al1.5CoCrCuFe,FCC+BCC,M,,,6.3,510.0,,25.0,,,,,167.0,,,,,,,,,,21
160,32,10.3166/acsm.31.633-648,Al1.8CoCrCuFe,FCC+BCC,M,,,6.0,557.0,,25.0,,,,,155.0,,,,,,,,,,21
161,32,10.3166/acsm.31.633-648,Al2.0CoCrCuFe,FCC+BCC,M,,,5.9,567.0,,25.0,,,,,152.0,,,,,,,,,,21
162,32,10.3166/acsm.31.633-648,Al2.3CoCrCuFe,FCC+BCC,M,,,5.7,603.0,,25.0,,,,,147.0,,,,,,,,,,21
163,32,10.3166/acsm.31.633-648,Al2.5CoCrCuFe,FCC+BCC,M,,,5.6,624.0,,25.0,,,,,144.0,,,,,,,,,,21
164,32,10.3166/acsm.31.633-648,Al2.8CoCrCuFe,BCC,S,,,5.5,657.0,,25.0,,,,,140.0,,,,,,,,,,21
165,32,10.3166/acsm.31.633-648,Al3.0CoCrCuFe,BCC,S,,,5.4,644.0,,25.0,,,,,138.0,,,,,,,,,,21
166,32,10.3166/acsm.31.633-648,AlCoCrCuFe,FCC+BCC,M,,,6.8,407.0,,25.0,,,,,172.0,,,,,,,,,,21
167,32,10.3166/acsm.31.633-648,CoCrCuFe,FCC,S,,,8.2,134.0,,25.0,,,,,206.0,,,,,,,,,,21
168,33,10.1016/j.intermet.2010.03.030,CoCrCu0.5FeNi,FCC,S,AC,,8.3,172.0,,25.0,,,,,214.0,,,,,,,,,,22
169,35,10.1016/j.intermet.2006.08.005,CoCrCuFeNiTi,FCC,S,AC,,7.4,,C,25.0,1272.0,1272.0,2,0.0,77.0,,,,,provides both ,,,,,23
170,35,10.1016/j.intermet.2006.08.005,CoCrCuFeNiTi0.5,FCC,S,AC,,7.8,,C,25.0,700.0,1650.0,22,21.6,99.0,,,,,,,,,,23
171,35,10.1016/j.intermet.2006.08.005,CoCrCuFeNiTi0.8,FCC+Laves (C14),M,AC,,7.6,,C,25.0,1042.0,1848.0,3,2.11,128.0,,,,,,,,,,23
172,36,10.1149/1.2744133,Al0.5B0.2CoCrCuFeNi,,,AC,,7.7,415.0,,25.0,,,,,,,,,,,,,,,24
173,36,10.1149/1.2744133,Al0.5B0.6CoCrCuFeNi,,,AC,,7.7,505.0,,25.0,,,,,,,,,,,,,,,24
174,36,10.1149/1.2744133,Al0.5BCoCrCuFeNi,,,AC,,7.8,736.0,,25.0,,,,,,,,,,,,,,,24
175,36,10.1149/1.2744133,Al0.5CoCrCuFeNi,,,AC,,7.6,300.0,,25.0,,,,,193.0,,,,,,,,,,24
176,37,10.2320/matertrans.47.1395,Al0.5CoCrCuFeNi,FCC,S,AC,,7.6,225.0,,25.0,,,,,193.0,,,,,,,,,,25
177,37,10.2320/matertrans.47.1395,Al0.5CoCrCuFeNiTi,FCC+BCC+sigma,M,AC,,7.0,636.0,,25.0,,,,,,,,,,,,,,,25
178,37,10.2320/matertrans.47.1395,Al0.5CoCrCuFeNiTi0.2,FCC,S,AC,,7.5,272.0,,25.0,,,,,191.0,,,,,,,,,,25
179,37,10.2320/matertrans.47.1395,Al0.5CoCrCuFeNiTi0.4,FCC,S,AC,,7.3,321.0,,25.0,,,,,188.0,,,,,,,,,,25
180,37,10.2320/matertrans.47.1395,Al0.5CoCrCuFeNiTi0.6,FCC+BCC,M,AC,,7.2,458.0,,25.0,,,,,186.0,,,,,,,,,,25
181,37,10.2320/matertrans.47.1395,Al0.5CoCrCuFeNiTi0.8,FCC+BCC + sigma,M,AC,,7.1,590.0,,25.0,,,,,184.0,,,,,,,,,,25
182,37,10.2320/matertrans.47.1395,Al0.5CoCrCuFeNiTi1.2,FCC+BCC+sigma,M,AC,,6.9,646.0,,25.0,,,,,,,,,,,,,,,25
183,37,10.2320/matertrans.47.1395,Al0.5CoCrCuFeNiTi1.4,FCC+BCC+B2 +sigma + other,M,AC,,6.8,664.0,,25.0,,,,,,,,,,,,,,,25
184,37,10.2320/matertrans.47.1395,Al0.5CoCrCuFeNiTi1.6,FCC+BCC+B2 +other,M,AC,,6.7,657.0,,25.0,,,,,,,,,,,,,,,25
185,37,10.2320/matertrans.47.1395,Al0.5CoCrCuFeNiTi1.8,FCC+BCC+B2 +other,M,AC,,6.6,667.0,,25.0,,,,,,,,,,,,,,,25
186,37,10.2320/matertrans.47.1395,Al0.5CoCrCuFeNiTi2,FCC+BCC+B2 +other,M,AC,,6.5,696.0,,25.0,,,,,,,,,,,,,,,25
187,38,10.1007/s11661-006-0081-3,Al0.5CoCrCuFeNi,FCC,S,AC,,7.6,215.0,,25.0,,,,,193.0,,,,,,,,,,26
188,38,10.1007/s11661-006-0081-3,Al0.5CoCrCuFeNiV0.2,FCC,S,AC,,7.6,204.0,,25.0,,,,,191.0,,,,,,,,,,26
189,38,10.1007/s11661-006-0081-3,Al0.5CoCrCuFeNiV0.4,FCC+BCC,M,AC,,7.5,231.0,,25.0,,,,,189.0,,,,,,,,,,26
190,38,10.1007/s11661-006-0081-3,Al0.5CoCrCuFeNiV0.6,FCC+BCC+sigma,M,AC,,7.5,328.0,,25.0,,,,,,,,,,,,,,,26
191,38,10.1007/s11661-006-0081-3,Al0.5CoCrCuFeNiV0.8,FCC+BCC+sigma,M,AC,,7.4,447.0,,25.0,,,,,,,,,,,,,,,26
192,38,10.1007/s11661-006-0081-3,Al0.5CoCrCuFeNiV1.0,FCC+BCC+sigma,M,AC,,7.4,639.0,,25.0,,,,,,,,,,,,,,,26
193,38,10.1007/s11661-006-0081-3,Al0.5CoCrCuFeNiV1.2,BCC,S,AC,,7.3,579.0,,25.0,,,,,182.0,,,,,,,,,,26
194,38,10.1007/s11661-006-0081-3,Al0.5CoCrCuFeNiV1.4,BCC,S,AC,,7.3,577.0,,25.0,,,,,180.0,,,,,,,,,,26
195,38,10.1007/s11661-006-0081-3,Al0.5CoCrCuFeNiV1.6,BCC,S,AC,,7.2,594.0,,25.0,,,,,179.0,,,,,,,,,,26
196,38,10.1007/s11661-006-0081-3,Al0.5CoCrCuFeNiV1.8,BCC,S,AC,,7.2,597.0,,25.0,,,,,177.0,,,,,,,,,,26
197,38,10.1007/s11661-006-0081-3,Al0.5CoCrCuFeNiV2.0,BCC,S,AC,,7.2,587.0,,25.0,,,,,176.0,,,,,,,,,,26
198,39,10.1016/j.msea.2012.07.003,AlCoCrCuFeNi,FCC+BCC,M,AC,,7.1,472.0,,25.0,,,,,184.0,,,,,,,,,,27
199,39,10.1016/j.msea.2012.07.003,AlCoCuFeNdNi,Im,M,AC,,7.4,578.0,,25.0,,,,,,,,,,changed Nb to Nd,,,,,27
200,39,10.1016/j.msea.2012.07.003,AlCoCuFeNi,FCC+BCC,M,AC,,7.0,536.0,,25.0,,,,,164.0,,,,,,,,,,27
201,39,10.1016/j.msea.2012.07.003,AlCoCuFeNiSi,FCC+BCC,M,AC,,5.9,682.0,,25.0,,,,,145.0,,,,,,,,,,27
202,39,10.1016/j.msea.2012.07.003,AlCoCuFeNiTi,FCC+BCC,M,AC,,6.5,626.0,,25.0,,,,,156.0,,,,,,,,,,27
203,39,10.1016/j.msea.2012.07.003,AlCoCuFeNiZr,FCC+BCC+Im,M,AC,,6.9,472.0,,25.0,,,,,,,,,,,,,,,27
204,40,10.1016/j.msea.2008.08.025,AlCoCrCuFeMnNi,FCC+BCC+Im,M,AC,,7.1,,C,25.0,1005.0,,15,,,,,,,total elongation is reported,,,,,29
205,40,10.1016/j.msea.2008.08.025,AlCoCrCuFeNi,FCC+BCC,M,AC,,7.1,,C,25.0,1303.0,,24,,183.0,,,,,,,,,,29
206,40,10.1016/j.msea.2008.08.025,AlCoCrCuFeNiTi,FCC+BCC + BCC,M,AC,,6.6,,C,25.0,1234.0,,9,,174.0,,,,,,,,,,29
207,40,10.1016/j.msea.2008.08.025,AlCoCrCuFeNiV,FCC+BCC,M,AC,,6.9,,C,25.0,1469.0,,16,,175.0,,,,,,,,,,29
208,42,10.1016/j.matdes.2009.09.016,AlCoCrCuNiTi,BCC,S,,,6.4,,C,25.0,,1495.0,,8.0,,36.0,,,,plastic elongation is reported; no stress strain provided,,,,,30
209,42,10.1016/j.matdes.2009.09.016,AlCoCrCuNiTiY,Im,M,AC,,5.8,,C,25.0,,1192.0,,4.0,,37.0,,,,,,,,,30
210,42,10.1016/j.matdes.2009.09.016,AlCoCrCuNiTiY0.5,Im,M,AC,,6.1,,C,25.0,,1025.0,,3.0,,36.0,,,,,,,,,30
211,42,10.1016/j.matdes.2009.09.016,AlCoCrCuNiTiY0.8,Im,M,AC,,5.9,,C,25.0,,1325.0,,5.0,,38.0,,,,,,,,,30
212,43,10.1016/j.msea.2012.03.080,CoCuFeNi,FCC,S,AC,,8.6,,T,25.0,,480.0,,15.0,188.0,,,,,I think this is plastic elongation ,,,,,31
213,43,10.1016/j.msea.2012.03.080,CoCuFeNiSn0.02,FCC,S,AC,,8.6,,T,25.0,,548.0,,17.0,187.0,,,,,,,,,,31