,REFERENCE: tag,REFERENCE: doi,FORMULA,PROPERTY: Type of phases,PROPERTY: Single/Multiphase,PROPERTY: synthesis method,PROPERTY: grain size ($\mu$m),PROPERTY: ROM Density (g/cm$^3$),PROPERTY: HV,PROPERTY: Type of test,PROPERTY: Test temperature ($^\circ$C),PROPERTY: YS (MPa),PROPERTY: UTS (MPa),PROPERTY: Elongation (%),PROPERTY: Elongation plastic (%),PROPERTY: ROM Young modulus (GPa),PROPERTY: Exp. Young modulus (GPa),PROPERTY: O content (wppm),PROPERTY: N content (wppm),PROPERTY: C content (wppm),REFERENCE: comment,Internal Reference #,Original DOI,PROPERTY: Exp. Density (g/cm$^3$),Unnamed: 22,IDENTIFIER: Reference ID
259,J34-6,10.1016/j.actamat.2014.08.026,NiFe,,,,,,,,,,,,,,166.2,,,,,6.0,10.1016/j.actamat.2014.08.026,,,167
260,J35,10.1016/j.actamat.2019.03.010,Al34Co17Cr34Cu0Fe5Ni10,,,,,,699 $\pm$ 37,,,,,,,,,,,,"No mechnical data, data mostly on HV",,,,not a review article ,172
261,J35,10.1016/j.actamat.2019.03.010,Al47Co14Cr15Cu5Fe13Ni6,,,,,,728 $\pm$ 42,,,,,,,,,,,,,,,,not a review article ,172
262,J35,10.1016/j.actamat.2019.03.010,Al38Co11Cr6Cu9Fe31Ni5,,,,,,604 $\pm$ 31,,,,,,,,,,,,,,,,not a review article ,172
263,J35,10.1016/j.actamat.2019.03.010,Al36Co10Cr31Cu6Fe9Ni8,,,,,,790 $\pm$ 41,,,,,,,,,,,,,,,,not a review article ,172
264,J35,10.1016/j.actamat.2019.03.010,Al43Co17Cr15Cu0Fe14Ni11,,,,,,806 $\pm$ 31,,,,,,,,,,,,,,,,not a review article ,172
265,J35,10.1016/j.actamat.2019.03.010,Al47Co12Cr12Cu5Fe13Ni11,,,,,,811 $\pm$ 31,,,,,,,,,,,,,,,,not a review article ,172
266,J35,10.1016/j.actamat.2019.03.010,Al43Co19Cr19Cu0Fe11Ni8,,,,,,855 $\pm$ 26,,,,,,,,,,,,,,,,not a review article ,172
267,J35,10.1016/j.actamat.2019.03.010,Al39Co10Cr31Cu5Fe8Ni7,,,,,,802 $\pm$ 18,,,,,,,,,,,,,,,,not a review article ,172
268,J35,10.1016/j.actamat.2019.03.010,Al47Co13Cr13Cu5Fe12Ni10,,,,,,799 $\pm$ 42,,,,,,,,,,,,,,,,not a review article ,172
269,J35,10.1016/j.actamat.2019.03.010,Al43Co20Cr22Cu0Fe8Ni7,,,,,,857 $\pm$ 43,,,,,,,,,,,,,,,,not a review article ,172
270,J35,10.1016/j.actamat.2019.03.010,Al47Co14Cr19Cu5Fe10Ni5,,,,,,855 $\pm$ 15,,,,,,,,,,,,,,,,not a review article ,172
271,J35,10.1016/j.actamat.2019.03.010,Al43Co20Cr19Cu0Fe9Ni9,,,,,,816 $\pm$ 37,,,,,,,,,,,,,,,,not a review article ,172
272,J35,10.1016/j.actamat.2019.03.010,Al46Co14Cr23Cu5Fe7Ni5,,,,,,811 $\pm$ 34,,,,,,,,,,,,,,,,not a review article ,172
273,J35,10.1016/j.actamat.2019.03.010,Al44Co14Cr22Cu5Fe9Ni6,,,,,,790 $\pm$ 48,,,,,,,,,,,,,,,,not a review article ,172
274,J35,10.1016/j.actamat.2019.03.010,Al43Co19Cr24Cu0Fe8Ni6,,,,,,855 $\pm$ 30,,,,,,,,,,,,,,,,not a review article ,172
275,J35,10.1016/j.actamat.2019.03.010,Al43Co18Cr24Cu0Fe10Ni5,,,,,,856 $\pm$ 53,,,,,,,,,,,,,,,,not a review article ,172
276,J35,10.1016/j.actamat.2019.03.010,Al47Co14Cr20Cu5Fe9Ni5,,,,,,859 $\pm$ 26,,,,,,,,,,,,,,,,not a review article ,172
277,J35,10.1016/j.actamat.2019.03.010,Al43Co24Cr22Cu0Fe5Ni6,,,,,,875 $\pm$ 58,,,,,,,,,,,,,,,,not a review article ,172
278,J35,10.1016/j.actamat.2019.03.010,Al43Co25Cr22Cu0Fe5Ni5,,,,,,865 $\pm$ 39,,,,,,,,,,,,,,,,not a review article ,172
279,J35,10.1016/j.actamat.2019.03.010,Al43Co24Cr23Cu0Fe5Ni5,,,,,,868 $\pm$ 45,,,,,,,,,,,,,,,,not a review article ,172
280,J35,10.1016/j.actamat.2019.03.010,Al43Co23Cr21Cu0Fe8Ni5,,,,,,863 $\pm$ 34,,,,,,,,,,,,,,,,not a review article ,172
281,J35,10.1016/j.actamat.2019.03.010,Al47Co12Cr20Cu5Fe11Ni5,,,,,,843 $\pm$ 52,,,,,,,,,,,,,,,,not a review article ,172
282,J35,10.1016/j.actamat.2019.03.010,Al43Co15Cr17Cu5Fe14Ni6,,,,,,794 $\pm$ 35,,,,,,,,,,,,,,,,not a review article ,172
283,J35,10.1016/j.actamat.2019.03.010,Al42Co10Cr30Cu5Fe7Ni6,,,,,,783 $\pm$ 27,,,,,,,,,,,,,,,,not a review article ,172
284,J35,10.1016/j.actamat.2019.03.010,Al47Co11Cr22Cu5Fe10Ni5,,,,,,797 $\pm$ 17,,,,,,,,,,,,,,,,not a review article ,172
285,J35,10.1016/j.actamat.2019.03.010,Al47Co13Cr20Cu5Fe10Ni5,,,,,,805 $\pm$ 24,,,,,,,,,,,,,,,,not a review article ,172
286,J35,10.1016/j.actamat.2019.03.010,Al29Co22Cr34Cu0Fe5Ni10,,,,,,699 $\pm$ 10,,,,,,,,,,,,,,,,not a review article ,172
287,J35,10.1016/j.actamat.2019.03.010,Al47Co7Cr16Cu9Fe16Ni5,,,,,,749 $\pm$ 26,,,,,,,,,,,,,,,,not a review article ,172
288,J35,10.1016/j.actamat.2019.03.010,Al43Co14Cr21Cu5Fe12Ni5,,,,,,828 $\pm$ 42,,,,,,,,,,,,,,,,not a review article ,172
289,J35,10.1016/j.actamat.2019.03.010,Al47Co18Cr15Cu5Fe10Ni5,,,,,,849 $\pm$ 37,,,,,,,,,,,,,,,,not a review article ,172
290,J35,10.1016/j.actamat.2019.03.010,Al47Co20Cr18Cu5Fe5Ni5,BCC+B2,M,,,,883 $\pm$ 22,,,,,,,,,,,,,,,,not a review article ,172
291,J35,10.1016/j.actamat.2019.03.010,Al43Co18Cr20Cu0Fe12Ni7,,,,,,864 $\pm$ 23,,,,,,,,,,,,,,,,not a review article ,172
292,J35,10.1016/j.actamat.2019.03.010,Al47Co17Cr16Cu5Fe10Ni5,,,,,,841 $\pm$ 37,,,,,,,,,,,,,,,,not a review article ,172
293,J35,10.1016/j.actamat.2019.03.010,Al43Co24Cr23Cu0Fe5Ni5,,,,,,868 $\pm$ 45,,,,,,,,,,,,,,,,not a review article ,172
294,J35,10.1016/j.actamat.2019.03.010,Al43Co25Cr22Cu0Fe5Ni5,,,,,,865 $\pm$ 39,,,,,,,,,,,,,,,,not a review article ,172
295,J35,10.1016/j.actamat.2019.03.010,Al46Co21Cr18Cu5Fe5Ni5,,,,,,840 $\pm$ 67,,,,,,,,,,,,,,,,not a review article ,172
296,J35,10.1016/j.actamat.2019.03.010,Al43Co22Cr22Cu0Fe8Ni5,,,,,,882 $\pm$ 22,,,,,,,,,,,,,,,,not a review article ,172
297,J35,10.1016/j.actamat.2019.03.010,Al43Co22Cr23Cu0Fe7Ni5,BCC+B2,M,,,,883 $\pm$ 47,,,,,,,,,,,,,,,,not a review article ,172
298,J35,10.1016/j.actamat.2019.03.010,Al43Co20Cr21Cu0Fe9Ni7,,,,,,828 $\pm$ 48,,,,,,,,,,,,,,,,not a review article ,172
299,J35,10.1016/j.actamat.2019.03.010,Al43Co22Cr25Cu0Fe5Ni5,,,,,,848 $\pm$ 27,,,,,,,,,,,,,,,,not a review article ,172
300,J35,10.1016/j.actamat.2019.03.010,Al47Co19Cr19Cu5Fe5Ni5,,,,,,878 $\pm$ 25,,,,,,,,,,,,,,,,not a review article ,172
301,J35,10.1016/j.actamat.2019.03.010,Al43Co29Cr18Cu0Fe5Ni5,,,,,,782 $\pm$ 49,,,,,,,,,,,,,,,,not a review article ,172
302,J36,10.1016/j.msea.2019.01.112,Co20.6Cr19.9Fe19.5Ni20.9Mn19.1,BCC,S,CR+A,,,,T,25.0,1290,1415,1.1,,,,,,,,,,,not a review article ,173
303,J36,10.1016/j.msea.2019.01.112,Co20.6Cr19.9Fe19.5Ni20.9Mn19.1,FCC + BCC + $\sigma$,M,CR+A,1.3 $\pm$ 0.7,,,T,25.0,1135,1260,1.8,,,,,,,fixed grain size; wrong unit,,,,,173
304,J36,10.1016/j.msea.2019.01.112,Co20.6Cr19.9Fe19.5Ni20.9Mn19.1,FCC + BCC + $\sigma$,M,CR+A,2 $\pm$ 0.9,,,T,25.0,585,815,31.7,,,,,,,fixed grain size; wrong unit,,,,,173
305,J36,10.1016/j.msea.2019.01.112,Co20.6Cr19.9Fe19.5Ni20.9Mn19.1,FCC + $\sigma$,M,CR+A,3.6 $\pm$ 1.7,,,T,25.0,425,735,40.2,,,,,,,fixed grain size; wrong unit,,,,,173
306,J36,10.1016/j.msea.2019.01.112,Co20.6Cr19.9Fe19.5Ni20.9Mn19.1,FCC,S,CR+A,17.1 $\pm$ 8.2,,,T,25.0,270,630,46.2,,,,,,,fixed grain size; wrong unit,,,,,173
307,J36,10.1016/j.msea.2019.01.112,Co20.6Cr19.9Fe19.5Ni20.9Mn19.1,,,CR,0.07,,,T,25.0,1120,1175,1.5,,,,,,,added grain size from text,,,,,173
308,J38,10.1016/j.actamat.2019.06.032,Al0.4Hf0.6NbTaTiZr,BCC,S,HIP+A,,,,C,23.0,1841,,,,,,,,,noted grain size greater than 100um,,,9.08,not a review article,174
309,J38,10.1016/j.actamat.2019.06.032,AlCrMoTi,BCC,S,A,,,,C,23.0,1100,,,,,,,,,noted grain size greater than 100um,,,5.98,not a review article,174
310,J38,10.1016/j.actamat.2019.06.032,AlMoNbTi,BCC,S,A,,,,C,23.0,1100,,,,,,,,,noted grain size greater than 100um,,,6.46,not a review article,174
311,J38,10.1016/j.actamat.2019.06.032,HfMo0.5NbTiV0.5,BCC,S,AC,,,,C,23.0,1260,,,,,,,,,noted grain size greater than 100um,,,8.96,not a review article,174
312,J38,10.1016/j.actamat.2019.06.032,HfMoNbTaTiZr,BCC,S,AC,,,,C,23.0,1512,,,,,,,,,noted grain size greater than 100um,,,9.93,not a review article,174
313,J38,10.1016/j.actamat.2019.06.032,HfMoNbTiZr,BCC,S,AC,,,,C,23.0,1575,,,,,,,,,noted grain size greater than 100um,,,8.68,not a review article,174
314,J38,10.1016/j.actamat.2019.06.032,HfMoTaTiZr,BCC,S,AC,,,,C,23.0,1600,,,,,,,,,noted grain size greater than 100um,,,10.18,not a review article,174
315,J38,10.1016/j.actamat.2019.06.032,HfNbTaTiZr,BCC,S,HIP+A,,,,C,23.0,929,,,,,,,,,noted grain size greater than 100um,,,9.89,not a review article,174
316,J38,10.1016/j.actamat.2019.06.032,MoNbTaTiVW,BCC,S,AC,,,,C,23.0,1515,,,,,,,,,noted grain size greater than 100um,,,10.91,not a review article,174
317,J38,10.1016/j.actamat.2019.06.032,MoNbTaTiW,BCC,S,AC,,,,C,23.0,1343,,,,,,,,,noted grain size greater than 100um,,,11.72,not a review article,174
318,J38,10.1016/j.actamat.2019.06.032,MoNbTaVW,BCC,S,HIP+A,,,,C,23.0,1246,,,,,,,,,noted grain size greater than 100um,,,12.29,not a review article,174
319,J38,10.1016/j.actamat.2019.06.032,MoNbTaW,BCC,S,HIP+A,,,,C,23.0,996,,,,,,,,,noted grain size greater than 100um,,,13.6,not a review article,174
320,J38,10.1016/j.actamat.2019.06.032,MoNbTi,BCC,S,HIP+A,,,,C,23.0,1100,,,,,,,,,noted grain size greater than 100um,,,7.67,not a review article,174
321,J38,10.1016/j.actamat.2019.06.032,NbTa0.3TiZr,BCC,S,HIP+A,,,,C,23.0,882,,,,,,,,,noted grain size greater than 100um,,,7.81,not a review article,174
322,J38,10.1016/j.actamat.2019.06.032,NbTiZr,BCC,S,HIP+A,,,,C,23.0,975,,,,,,,,,noted grain size greater than 100um,,,6.63,not a review article,174
323,J38,10.1016/j.actamat.2019.06.032,AlCrMoNbTi,BCC + Laves,M,A,,,,C,23.0,1010,,,,,,,,,noted grain size greater than 100um,,,6.56,not a review article,174
324,J38,10.1016/j.actamat.2019.06.032,Al0.24NbTiVZr,BCC + Laves,M,HIP+A,,,,C,23.0,1240,,,,,,,,,noted grain size greater than 100um,,,6.34,not a review article,174
325,J38,10.1016/j.actamat.2019.06.032,AlMo0.5NbTa0.5TiZr,B2 + BCC,M,HIP+A,,,,C,23.0,2000,,,,,,,,,noted grain size greater than 100um,,,7.14,not a review article,174
326,J38,10.1016/j.actamat.2019.06.032,Cr03NbTiZr,BCC + Laves,M,HIP+A,,,,C,23.0,1576,,,,,,,,,noted grain size greater than 100um,,,6.56,not a review article,174
327,J38,10.1016/j.actamat.2019.06.032,CrMo0.5NbTa0.5TiZr,BCC +BCC + Laves,M,HIP+A,,,,C,23.0,1595,,,,,,,,,noted grain size greater than 100um,,,7.98,not a review article,174
328,J38,10.1016/j.actamat.2019.06.032,HfMo0.5NbSi0.3TiV0.5,BCC + M5Si3,M,AC,,,,C,23.0,1617,,,,,,,,,noted grain size greater than 100um,,,8.46,not a review article,174
329,J38,10.1016/j.actamat.2019.06.032,HfMo0.5NbSi0.5TiV0.5,BCC + M5Si3,M,AC,,,,C,23.0,1787,,,,,,,,,noted grain size greater than 100um,,,8.16,not a review article,174
330,J38,10.1016/j.actamat.2019.06.032,HfMo0.5NbSi0.7TiV0.5,BCC + M5Si3,M,AC,,,,C,23.0,2134,,,,,,,,,noted grain size greater than 100um,,,7.89,not a review article,174
331,J38,10.1016/j.actamat.2019.06.032,MoNbTiVZr,BCC +Laves,M,HIP+A,,,,C,23.0,1706,,,,,,,,,noted grain size greater than 100um,,,7.27,not a review article,174
332,J38,10.1016/j.actamat.2019.06.032,NbRe0.3TiZr,BCC +Laves,M,HIP+A,,,,C,23.0,1244,,,,,,,,,noted grain size greater than 100um,,,7.81,not a review article,174
333,J38,10.1016/j.actamat.2019.06.032,NbTaTiVZr,BCC + BCC,M,HIP+A,,,,C,23.0,1395,,,,,,,,,noted grain size greater than 100um,,,8.43,not a review article,174
334,J38,10.1016/j.actamat.2019.06.032,Al0.4Hf0.6NbTaTiZr,BCC,S,HIP+A,,,,C,1000.0,298,,,,,,,,,noted grain size greater than 100um,,,9.08,not a review article,174
335,J38,10.1016/j.actamat.2019.06.032,AlCrMoTi,BCC,S,A,,,,C,1000.0,375,,,,,,,,,noted grain size greater than 100um,,,5.98,not a review article,174
336,J38,10.1016/j.actamat.2019.06.032,AlMoNbTi,BCC,S,A,,,,C,1000.0,540,,,,,,,,,noted grain size greater than 100um,,,6.46,not a review article,174
337,J38,10.1016/j.actamat.2019.06.032,HfMo0.5NbTiV0.5,BCC,S,AC,,,,C,1000.0,368,,,,,,,,,noted grain size greater than 100um,,,8.96,not a review article,174
338,J38,10.1016/j.actamat.2019.06.032,HfMoNbTaTiZr,BCC,S,AC,,,,C,1000.0,814,,,,,,,,,noted grain size greater than 100um,,,9.93,not a review article,174
339,J38,10.1016/j.actamat.2019.06.032,HfMoNbTiZr,BCC,S,AC,,,,C,1000.0,635,,,,,,,,,noted grain size greater than 100um,,,8.68,not a review article,174
340,J38,10.1016/j.actamat.2019.06.032,HfMoTaTiZr,BCC,S,AC,,,,C,1000.0,855,,,,,,,,,noted grain size greater than 100um,,,10.18,not a review article,174
341,J38,10.1016/j.actamat.2019.06.032,HfNbTaTiZr,BCC,S,HIP+A,,,,C,1000.0,295,,,,,,,,,noted grain size greater than 100um,,,9.89,not a review article,174
342,J38,10.1016/j.actamat.2019.06.032,MoNbTaTiVW,BCC,S,AC,,,,C,1000.0,753,,,,,,,,,noted grain size greater than 100um,,,10.91,not a review article,174
343,J38,10.1016/j.actamat.2019.06.032,MoNbTaTiW,BCC,S,AC,,,,C,1000.0,620,,,,,,,,,noted grain size greater than 100um,,,11.72,not a review article,174
344,J38,10.1016/j.actamat.2019.06.032,MoNbTaVW,BCC,S,HIP+A,,,,C,1000.0,842,,,,,,,,,noted grain size greater than 100um,,,12.29,not a review article,174
345,J38,10.1016/j.actamat.2019.06.032,MoNbTaW,BCC,S,HIP+A,,,,C,1000.0,548,,,,,,,,,noted grain size greater than 100um,,,13.6,not a review article,174
346,J38,10.1016/j.actamat.2019.06.032,MoNbTi,BCC,S,HIP+A,,,,C,1000.0,504,,,,,,,,,noted grain size greater than 100um,,,7.67,not a review article,174
347,J38,10.1016/j.actamat.2019.06.032,NbTa0.3TiZr,BCC,S,HIP+A,,,,C,1000.0,274,,,,,,,,,noted grain size greater than 100um,,,7.81,not a review article,174
348,J38,10.1016/j.actamat.2019.06.032,NbTiZr,BCC,S,HIP+A,,,,C,1000.0,141,,,,,,,,,noted grain size greater than 100um,,,6.63,not a review article,174
349,J38,10.1016/j.actamat.2019.06.032,AlCrMoNbTi,BCC + Laves,M,A,,,,C,1000.0,550,,,,,,,,,noted grain size greater than 100um,,,6.56,not a review article,174
350,J38,10.1016/j.actamat.2019.06.032,Al0.24NbTiVZr,BCC + Laves,M,HIP+A,,,,C,1000.0,82,,,,,,,,,noted grain size greater than 100um,,,6.34,not a review article,174
351,J38,10.1016/j.actamat.2019.06.032,AlMo0.5NbTa0.5TiZr,B2 + BCC,M,HIP+A,,,,C,1000.0,745,,,,,,,,,noted grain size greater than 100um,,,7.14,not a review article,174
352,J38,10.1016/j.actamat.2019.06.032,Cr03NbTiZr,BCC + Laves,M,HIP+A,,,,C,1000.0,139,,,,,,,,,noted grain size greater than 100um,,,6.56,not a review article,174
353,J38,10.1016/j.actamat.2019.06.032,CrMo0.5NbTa0.5TiZr,BCC +BCC + Laves,M,HIP+A,,,,C,1000.0,546,,,,,,,,,noted grain size greater than 100um,,,7.98,not a review article,174
354,J38,10.1016/j.actamat.2019.06.032,HfMo0.5NbSi0.3TiV0.5,BCC + M5Si3,M,AC,,,,C,1000.0,398,,,,,,,,,noted grain size greater than 100um,,,8.46,not a review article,174
355,J38,10.1016/j.actamat.2019.06.032,HfMo0.5NbSi0.5TiV0.5,BCC + M5Si3,M,AC,,,,C,1000.0,614,,,,,,,,,noted grain size greater than 100um,,,8.16,not a review article,174
356,J38,10.1016/j.actamat.2019.06.032,HfMo0.5NbSi0.7TiV0.5,BCC + M5Si3,M,AC,,,,C,1000.0,673,,,,,,,,,noted grain size greater than 100um,,,7.89,not a review article,174
357,J38,10.1016/j.actamat.2019.06.032,MoNbTiVZr,BCC +Laves,M,HIP+A,,,,C,1000.0,467,,,,,,,,,noted grain size greater than 100um,,,7.27,not a review article,174
358,J38,10.1016/j.actamat.2019.06.032,NbRe0.3TiZr,BCC +Laves,M,HIP+A,,,,C,1000.0,323,,,,,,,,,noted grain size greater than 100um,,,7.81,not a review article,174
359,J38,10.1016/j.actamat.2019.06.032,NbTaTiVZr,BCC + BCC,M,HIP+A,,,,C,1000.0,190,,,,,,,,,noted grain size greater than 100um,,,8.43,not a review article,174
360,J38,10.1016/j.actamat.2019.06.032,Al0.4Hf0.6NbTaTiZr,BCC,S,HIP+A,,,,C,1200.0,89,,,,,,,,,noted grain size greater than 100um,,,9.08,not a review article,174
361,J38,10.1016/j.actamat.2019.06.032,AlCrMoTi,BCC,S,A,,,,C,1200.0,100,,,,,,,,,noted grain size greater than 100um,,,5.98,not a review article,174
362,J38,10.1016/j.actamat.2019.06.032,AlMoNbTi,BCC,S,A,,,,C,1200.0,200,,,,,,,,,noted grain size greater than 100um,,,6.46,not a review article,174
363,J38,10.1016/j.actamat.2019.06.032,HfMo0.5NbTiV0.5,BCC,S,AC,,,,C,1200.0,60,,,,,,,,,noted grain size greater than 100um,,,8.96,not a review article,174
364,J38,10.1016/j.actamat.2019.06.032,HfMoNbTaTiZr,BCC,S,AC,,,,C,1200.0,556,,,,,,,,,noted grain size greater than 100um,,,9.93,not a review article,174
365,J38,10.1016/j.actamat.2019.06.032,HfMoNbTiZr,BCC,S,AC,,,,C,1200.0,187,,,,,,,,,noted grain size greater than 100um,,,8.68,not a review article,174
366,J38,10.1016/j.actamat.2019.06.032,HfMoTaTiZr,BCC,S,AC,,,,C,1200.0,404,,,,,,,,,noted grain size greater than 100um,,,10.18,not a review article,174
367,J38,10.1016/j.actamat.2019.06.032,HfNbTaTiZr,BCC,S,HIP+A,,,,C,1200.0,92,,,,,,,,,noted grain size greater than 100um,,,9.89,not a review article,174
368,J38,10.1016/j.actamat.2019.06.032,MoNbTaTiVW,BCC,S,AC,,,,C,1200.0,659,,,,,,,,,noted grain size greater than 100um,,,10.91,not a review article,174
369,J38,10.1016/j.actamat.2019.06.032,MoNbTaTiW,BCC,S,AC,,,,C,1200.0,586,,,,,,,,,noted grain size greater than 100um,,,11.72,not a review article,174
370,J38,10.1016/j.actamat.2019.06.032,MoNbTaVW,BCC,S,HIP+A,,,,C,1200.0,735,,,,,,,,,noted grain size greater than 100um,,,12.29,not a review article,174
371,J38,10.1016/j.actamat.2019.06.032,MoNbTaW,BCC,S,HIP+A,,,,C,1200.0,506,,,,,,,,,noted grain size greater than 100um,,,13.6,not a review article,174
372,J38,10.1016/j.actamat.2019.06.032,MoNbTi,BCC,S,HIP+A,,,,C,1200.0,324,,,,,,,,,noted grain size greater than 100um,,,7.67,not a review article,174
373,J38,10.1016/j.actamat.2019.06.032,NbTa0.3TiZr,BCC,S,HIP+A,,,,C,1200.0,102,,,,,,,,,noted grain size greater than 100um,,,7.81,not a review article,174
374,J38,10.1016/j.actamat.2019.06.032,NbTiZr,BCC,S,HIP+A,,,,C,1200.0,61,,,,,,,,,noted grain size greater than 100um,,,6.63,not a review article,174
375,J38,10.1016/j.actamat.2019.06.032,AlCrMoNbTi,BCC + Laves,M,A,,,,C,1200.0,105,,,,,,,,,noted grain size greater than 100um,,,6.56,not a review article,174
376,J38,10.1016/j.actamat.2019.06.032,Al0.24NbTiVZr,BCC + Laves,M,HIP+A,,,,C,1200.0,24,,,,,,,,,noted grain size greater than 100um,,,6.34,not a review article,174
377,J38,10.1016/j.actamat.2019.06.032,AlMo0.5NbTa0.5TiZr,B2 + BCC,M,HIP+A,,,,C,1200.0,250,,,,,,,,,noted grain size greater than 100um,,,7.14,not a review article,174
378,J38,10.1016/j.actamat.2019.06.032,Cr03NbTiZr,BCC + Laves,M,HIP+A,,,,C,1200.0,32,,,,,,,,,noted grain size greater than 100um,,,6.56,not a review article,174
379,J38,10.1016/j.actamat.2019.06.032,CrMo0.5NbTa0.5TiZr,BCC +BCC + Laves,M,HIP+A,,,,C,1200.0,170,,,,,,,,,noted grain size greater than 100um,,,7.98,not a review article,174
380,J38,10.1016/j.actamat.2019.06.032,HfMo0.5NbSi0.3TiV0.5,BCC + M5Si3,M,AC,,,,C,1200.0,166,,,,,,,,,noted grain size greater than 100um,,,8.46,not a review article,174
381,J38,10.1016/j.actamat.2019.06.032,HfMo0.5NbSi0.5TiV0.5,BCC + M5Si3,M,AC,,,,C,1200.0,188,,,,,,,,,noted grain size greater than 100um,,,8.16,not a review article,174
382,J38,10.1016/j.actamat.2019.06.032,HfMo0.5NbSi0.7TiV0.5,BCC + M5Si3,M,AC,,,,C,1200.0,235,,,,,,,,,noted grain size greater than 100um,,,7.89,not a review article,174
383,J38,10.1016/j.actamat.2019.06.032,MoNbTiVZr,BCC +Laves,M,HIP+A,,,,C,1200.0,116,,,,,,,,,noted grain size greater than 100um,,,7.27,not a review article,174
384,J38,10.1016/j.actamat.2019.06.032,NbRe0.3TiZr,BCC +Laves,M,HIP+A,,,,C,1200.0,89,,,,,,,,,noted grain size greater than 100um,,,7.81,not a review article,174
385,J38,10.1016/j.actamat.2019.06.032,NbTaTiVZr,BCC + BCC,M,HIP+A,,,,C,1200.0,78,,,,,,,,,noted grain size greater than 100um,,,8.43,not a review article,174
386,J39,10.1016/j.intermet.2019.106486,CoCrFeMnNi,FCC,S,HR + A,245.48,,,T,25.0,293.1,625.6,63,,,,,,,processing changed to hot rolled; added grain size from text ,,,7.753,,175
387,J40,10.1016/j.jallcom.2019.04.291,HfNbTaTiZr,BCC,S,CR+A,40,,,T,25.0,985,1004,15.7,,,,,,,added total elongation,,,,,212
388,J40,10.1016/j.jallcom.2019.04.291,HfNbTaTiZr,BCC,S,CR+A,87,,,T,25.0,972,999.5,12.6,,,,,,,added total elongation,,,,,212
389,J40,10.1016/j.jallcom.2019.04.291,HfNbTaTiZr,BCC,S,CR+A,112,,,T,25.0,967,980.6,10.8,,,,,,,added total elongation,,,,,212
390,J41,10.1016/j.intermet.2019.106477,CoNiFe,FCC,S,CR,,,,T,25.0,,,15,,,,,,,fixed elongation,,,,,213
391,J41,10.1016/j.intermet.2019.106477,CoNiFe,FCC,S,CR+A,42,,,T,25.0,276,540,51,,,,,,,fixed elongation,,,,,213
392,J41,10.1016/j.intermet.2019.106477,CoNiFe,FCC,S,CR+A,74,,,T,25.0,217,498,47,,,,,,,fixed elongation,,,,,213
393,J41,10.1016/j.intermet.2019.106477,CoNiFe,FCC,S,CR+A,90,,,T,25.0,201,430,44.5,,,,,,,fixed elongation,,,,,213