,REFERENCE: tag,REFERENCE: doi,FORMULA,PROPERTY: Type of phases,PROPERTY: Single/Multiphase,PROPERTY: synthesis method,PROPERTY: grain size ($\mu$m),PROPERTY: ROM Density (g/cm$^3$),PROPERTY: HV,PROPERTY: Type of test,PROPERTY: Test temperature ($^\circ$C),PROPERTY: YS (MPa),PROPERTY: UTS (MPa),PROPERTY: Elongation (%),PROPERTY: Elongation plastic (%),PROPERTY: ROM Young modulus (GPa),PROPERTY: Exp. Young modulus (GPa),PROPERTY: O content (wppm),PROPERTY: N content (wppm),PROPERTY: C content (wppm),REFERENCE: comment,Internal Reference #,Original DOI,PROPERTY: Exp. Density (g/cm$^3$),Unnamed: 22,IDENTIFIER: Reference ID
830,J121,10.1007/s11665-018-3837-1,(CoCrCuFeNi)88V12,FCC + Sigma + Cu phase,M,AC,,,,C,25.0,330,,50.2,,,,,,,changed to multiphase,,,,,118
831,J121,10.1007/s11665-018-3837-1,(CoCrCuFeNi)84V16,FCC + Sigma + Cu phase,M,AC,,,,C,25.0,616,,28,,,,,,,changed to multiphase,,,,,118
832,J122,10.3390/e21020122,CoCrNiCuZn,FCC,S,SPS,500,,,C,25.0,,,,,,,,,,,,,5.26,,119
833,J122,10.3390/e21020122,CoCrNiCuZn,FCC,S,SPS,500,,,C,25.0,,,,,,,,,,,,,6.26,,119
834,J122,10.3390/e21020122,CoCrNiCuZn,FCC,S,SPS,500,,,C,25.0,,,,,,,,,,,,,7.84,,119
835,J122,10.3390/e21020122,CoCrNiCuZn,FCC,S,SPS,500,,615,C,25.0,,,,,,,,,,,,,7.89,,119
836,J123,10.3390/e21020114,HfNbTaTiZr,BCC,S,AC,500,,359,T,25.0,1155,1212,12.3,,,59,,,,,,,,,120
837,J123,10.3390/e21020114,NbTaTiZr,BCC,S,AC,500,,358,T,25.0,1144,1205,6.4,,,98,,,,,,,,,120
838,J123,10.3390/e21020114,NbTaTi,BCC,S,AC,500,,246,T,25.0,620,683,18.5,,,143,,,,,,,,,120
839,J123,10.3390/e21020114,TaTiZr,BCC + ,M,AC,500,,485,T,25.0,,284,0,,,157,,,,changed to multiphase,,,,,120
840,J123,10.3390/e21020114,NbTiZr,BCC,S,AC,500,,295,T,25.0,956,991,14.2,,,88,,,,,,,,,120
841,J123,10.3390/e21020114,Nb1.5TaTiZr0.5,BCC + ,M,AC,500,,294,T,25.0,822,852,0.33,,,127,,,,changed to multiphase,,,,,120
842,J123,10.3390/e21020114,Nb0.5TaTiZr1.5,BCC + ,M,AC,500,,489,T,25.0,,843,0,,,93,,,,changed to multiphase,,,,,120
843,J124,10.1016/j.msea.2018.12.020,AgAlNbTiZn,,M,A,,,,,,,,,,,,,,,changed to multiphase,,,4.75,,121
844,J124,10.1016/j.msea.2018.12.020,AgAlNbTiZn,,M,A,,,,,,,,,,,,,,,changed to multiphase,,,5.78,,121
845,J124,10.1016/j.msea.2018.12.020,AgAlNbTiZn,,M,A,,,,,,,,,,,,,,,changed to multiphase,,,5.79,,121
846,J124,10.1016/j.msea.2018.12.020,AgAlNbTiZn,,M,A,,,,,,,,,,,,,,,changed to multiphase,,,5.51,,121
847,J124,10.1016/j.msea.2018.12.020,AgAlNbTiZn,,M,A,,,,,,,,,,,,,,,changed to multiphase,,,,,121
848,J125,10.1155/2019/2157592,Fe31Mn28 Ni15Al24,,,AC,,,310,,,,,,,,,,,,,,,,,122
849,J125,10.1155/2019/2157592,Fe31Mn28 Ni15Al24Ti0.8,,,AC,,,330,,,,,,,,,,,,,,,,,122
850,J125,10.1155/2019/2157592,Fe31Mn28 Ni15Al24Ti3,,,AC,,,500,,,,,,,,,,,,,,,,,122
851,J125,10.1155/2019/2157592,Fe31Mn28 Ni15Al24,,,A,,,340,,,,,,,,,,,,,,,,,122
852,J125,10.1155/2019/2157592,Fe31Mn28 Ni15Al24Ti0.8,,,A,,,410,,,,,,,,,,,,,,,,,122
853,J125,10.1155/2019/2157592,Fe31Mn28 Ni15Al24Ti3,,,A,,,495,,,,,,,,,,,,,,,,,122
854,J125,10.1155/2019/2157592,Fe31Mn28 Ni15Al24,,,A,,,330,,,,,,,,,,,,,,,,,122
855,J125,10.1155/2019/2157592,Fe31Mn28 Ni15Al24Ti0.8,,,A,,,330,,,,,,,,,,,,,,,,,122
856,J125,10.1155/2019/2157592,Fe31Mn28 Ni15Al24Ti3,,,A,,,490,,,,,,,,,,,,,,,,,122
857,J126,10.1080/00325899.2019.1576389,AlCrFeNiCoC,FCC + BCC,M,SPS,,,,,,,,,,,,,,,,,,,,123
858,J128,10.1007/s11106-019-00012-z,CrFeNiCuTi,FCC + BCC,M,AC,,,,,,,,,,,,,,,No Mechanical Data,,,,,124
859,J128,10.1007/s11106-019-00012-z,CrFeNiCuTi,FCC + BCC,M,HF + A,,,,,,,,,,,,,,,,,,,,124
860,J128,10.1007/s11106-019-00012-z,CrFeNiCuTi,FCC + BCC,M,HF + A,,,,,,,,,,,,,,,,,,,,124
861,J128,10.1007/s11106-019-00012-z,CrFeNiCuTi,FCC + BCC,M,HF + A,,,,,,,,,,,,,,,,,,,,124
862,J129,10.1080/00325899.2018.1554834,CrMnFeCoNi,FCC  ,S,SPS,0.03,,435 $\pm$ 25,C,25.0,1100,,47,,,,,,,,,,7.753,,125
863,J130,10.1007/s11665-018-3822-8,CuCrFeNiAl0.5,FCC,S,AC,,,226,,,,,,,,,,,,,,,,,127
864,J130,10.1007/s11665-018-3822-8,CuCrFeNiAl0.5,FCC,S,CR + A,,,287,,,,,,,,,,,,,,,,,127
865,J131,10.3390/e21010015,HfMoNbTaTiZr,BCC,S,AC,,,,C,25.0,1512,,12,,,,,,,,,,,,128
866,J131,10.3390/e21010015,HfMoTaTiZr,BCC,S,AC,,,,C,25.0,1600,,4,,,,,,,,,,,,128
867,J131,10.3390/e21010015,HfMoNbTiZr,BCC,S,AC,,,,C,25.0,1351,,20,,,,,,,,,,,,128
868,J131,10.3390/e21010015,HfMoNbTaZr,BCC,S,AC,,,,C,25.0,1524,,16,,,,,,,,,,,,128
869,J131,10.3390/e21010015,HfMoNbTaTi ,BCC,S,AC,,,,C,25.0,1369,,27,,,,,,,,,,,,128
870,J131,10.3390/e21010015,HfMoNbTaTiZr,BCC,S,AC,,,,C,800.0,1007,,,,,,,,,,,,,,128
871,J131,10.3390/e21010015,HfMoTaTiZr,BCC,S,AC,,,,C,800.0,1045,,,,,,,,,,,,,,128
872,J131,10.3390/e21010015,HfMoNbTiZr,BCC,S,AC,,,,C,800.0,829,,,,,,,,,,,,,,128
873,J131,10.3390/e21010015,HfMoNbTaZr,BCC,S,AC,,,,C,800.0,1005,,,,,,,,,,,,,,128
874,J131,10.3390/e21010015,HfMoNbTaTi ,BCC,S,AC,,,,C,800.0,822,,,,,,,,,,,,,,128
875,J131,10.3390/e21010015,HfMoNbTaTiZr,BCC,S,AC,,,,C,1000.0,814,,,,,,,,,,,,,,128
876,J131,10.3390/e21010015,HfMoTaTiZr,BCC,S,AC,,,,C,1000.0,855,,,,,,,,,,,,,,128
877,J131,10.3390/e21010015,HfMoNbTiZr,BCC,S,AC,,,,C,1000.0,721,,,,,,,,,,,,,,128
878,J131,10.3390/e21010015,HfMoNbTaZr,BCC,S,AC,,,,C,1000.0,927,,,,,,,,,,,,,,128
879,J131,10.3390/e21010015,HfMoNbTaTi ,BCC,S,AC,,,,C,1000.0,778,,,,,,,,,,,,,,128
880,J131,10.3390/e21010015,HfMoNbTaTiZr,BCC,S,AC,,,,C,1200.0,556,,,,,,,,,,,,,,128
881,J131,10.3390/e21010015,HfMoTaTiZr,BCC,S,AC,,,,C,1200.0,404,,,,,,,,,,,,,,128
882,J131,10.3390/e21010015,HfMoNbTiZr,BCC,S,AC,,,,C,1200.0,301,,,,,,,,,,,,,,128
883,J131,10.3390/e21010015,HfMoNbTaZr,BCC,S,AC,,,,C,1200.0,694,,,,,,,,,,,,,,128
884,J131,10.3390/e21010015,HfMoNbTaTi ,BCC,S,AC,,,,C,1200.0,699,,,,,,,,,,,,,,128
885,J131,10.3390/e21010015,HfMoNbTaZr,BCC,S,AC,,,,C,1400.0,278,,,,,,,,,,,,,,128
886,J131,10.3390/e21010015,HfMoNbTaTi ,BCC,S,AC,,,,C,1400.0,367,,,,,,,,,,,,,,128
887,J132,10.3390/coatings9010016,CoCrFeNi,FCC,S,VHP,0.0276,,,,,,,,,,,,,,,,,,,129
888,J132,10.3390/coatings9010016,(CoCrFeNi)0.9(WC)0.1,FCC,S,VHP,0.0189,,475,,,,,,,,,,,,,,,7.24 $\pm$ 0.02,,129
889,J132,10.3390/coatings9010016,(CoCrFeNi)0.7(WC)0.3,FCC,S,VHP,0.0182,,531,,,,,,,,,,,,,,,8.39 $\pm$ 0.03,,129
890,J133,10.5755/j01.ms.25.3.19452,Al0.4FeCrCo1.5NiTi0.3,FCC + BCC,M,SPS,,,515 $\pm$ 16,C,25.0,2012 $\pm$ 20,,,17.52 $\pm$ 0.5,,,,,,,,,,,130
891,J134,10.1007/s11661-018-4646-8,HfNbTaTiZr,BCC,S,AC,,,,T,25.0,1438,,,,,91.5,,,,Hot Isostatically Pressed,,,,,131
892,J134,10.1007/s11661-018-4646-8,HfNbTaTiZr,BCC,S,HIP + CR + A,,,,T,25.0,1159,,,,,99.2,,,,these are true strains elongation and UTS were removed,,,,,131
893,J134,10.1007/s11661-018-4646-8,HfNbTaTiZr,BCC,S,HIP + CR + A,,,,T,25.0,1134,,,,,109.1,,,,,,,,,131
894,J134,10.1007/s11661-018-4646-8,HfNbTaTiZr,BCC,S,HIP + CR + A,,,,T,25.0,1094,,,,,105.3,,,,,,,,,131
895,J134,10.1007/s11661-018-4646-8,HfNbTaTiZr,BCC,S,HIP + CR + A,,,,T,25.0,1071,,,,,91.6,,,,,,,,,131
896,J134,10.1007/s11661-018-4646-8,HfNbTaTiZr,BCC,S,HIP + CR + A,24.4,,,T,25.0,1107,,,,,92.6,,,,,,,,,131
897,J134,10.1007/s11661-018-4646-8,HfNbTaTiZr,BCC,S,HIP + CR + A,31.3,,,T,25.0,1115,,,,,92.6,,,,,,,,,131
898,J134,10.1007/s11661-018-4646-8,HfNbTaTiZr,BCC,S,HIP + CR + A,38.4,,,T,25.0,1114,,,,,101.3,,,,,,,,,131
899,J134,10.1007/s11661-018-4646-8,HfNbTaTiZr,BCC,S,HIP + CR + A,50.1,,,,,,,,,,,,,,,,,,,131
900,J134,10.1007/s11661-018-4646-8,HfNbTaTiZr,BCC,S,HIP + CR + A,21.9,,,,,,,,,,,,,,,,,,,131
901,J134,10.1007/s11661-018-4646-8,HfNbTaTiZr,BCC,S,HIP + CR + A,75.5,,,,,,,,,,,,,,,,,,,131
902,J135,10.1080/02670836.2018.1446267,AlNbTiZr,B2,S,AC,250,,422 $\pm$ 15,C,25.0,1509,,8.6,,,,,,,,,,5.85,,132
903,J135,10.1080/02670836.2018.1446267,AlNbTiZr,B2 + Zr5Al3,M,A,,,418 $\pm$ 15,C,25.0,1579,,17.8,,,,,,,,,,,,132
904,J135-18,10.1016/j.matlet.2015.08.099,AlNbTiVZr0.5,,,,,,,C,25.0,1480,,>50,,,,,,,,,,5.64,,133
905,J135-19,10.1179/1743284715Y.0000000032,AlNbTiZr,,,,,,539.6,C,25.0,1080,,5.9,,,,,,,,,,5.79,,134
906,J135-24,10.1016/j.actamat.2012.11.032,NbTiVZr,,,,,,335,C,25.0,1105,,>50,,,,,,,,,,6.52,,135
907,J135-24,10.1016/j.actamat.2012.11.032,CrNbTiZr,,,,,,418,C,25.0,1260,,6,,,,,,,,,,6.67,,135
908,new_ref_2,10.1088/0256-307X/35/3/036102,AlCrFeNiMo0.5,BCC+B2,M,AC,,,623.7,C,25.0,1914.1,4023.6,,27.9,,,,,,,,,,,266
909,new_ref_2,10.1088/0256-307X/35/3/036102,AlCrFeNiMo0.5Ti0.25,BCC+B2,M,AC,,,712,C,25.0,2161.7,3641.5,,14.3,,,,,,,,,,,266
910,new_ref_2,10.1088/0256-307X/35/3/036102,AlCrFeNiMo0.5Ti0.4,BCC+B2,M,AC,,,731.9,C,25.0,2185.1,3673.4,,14.8,,,,,,,,,,,266
911,new_ref_2,10.1088/0256-307X/35/3/036102,AlCrFeNiMo0.5Ti0.5,BCC+B2,M,AC,,,751.7,C,25.0,2228.7,3166.2,,10.4,,,,,,,,,,,266
912,new_ref_2,10.1088/0256-307X/35/3/036102,AlCrFeNiMo0.5Ti0.6,BCC+B2,M,AC,,,756.1,C,25.0,1314.5,1314.5,,,,,,,,,,,,,266
913,new_ref_2,10.1088/0256-307X/35/3/036102,AlCrFeNiMo0.5Ti0.75,BCC+B2,M,AC,,,766.2,C,25.0,618.8,618.8,,,,,,,,,,,,,266
914,new_ref_4,10.1016/j.matdes.2018.06.003,AlCrMoNb,Laves (C14)+A15,M,A,,,,,,,,,,,,,,,,,,,,267
915,new_ref_4,10.1016/j.matdes.2018.06.003,AlCrMoNb,Laves (C14)+A15,M,AC,,,,,,,,,,,,,,,,,,,,267
916,new_ref_4,10.1016/j.matdes.2018.06.003,AlHfNbTi,B2,S,A,,,,,,,,,,,,,,,,,,,,267
917,new_ref_4,10.1016/j.matdes.2018.06.003,AlHfNbTi,B2,S,AC,,,,,,,,,,,,,,,,,,,,267
918,new_ref_4,10.1016/j.matdes.2018.06.003,AlHfTaTi,B2,S,A,,,,,,,,,,,,,,,,,,,,267
919,new_ref_4,10.1016/j.matdes.2018.06.003,AlHfTaTi,B2,S,AC,,,,,,,,,,,,,,,,,,,,267
920,new_ref_4,10.1016/j.matdes.2018.06.003,AlMoNbTi,BCC+A15,M,A,,,,,,,,,,,,,,,,,,,,267
921,new_ref_4,10.1016/j.matdes.2018.06.003,AlMoNbTi,BCC,S,AC,,,509 $\pm$ 18,,,,,,,,,,,,,,,,,267
922,new_ref_4,10.1016/j.matdes.2018.06.003,AlNbTaTi,BCC+A15,M,A,,,,,,,,,,,,,,,,,,,,267
923,new_ref_4,10.1016/j.matdes.2018.06.003,AlNbTaTi,BCC,S,AC,,,458 $\pm$ 10,,,,,,,,,,,,,,,,,267
924,new_ref_4,10.1016/j.matdes.2018.06.003,CrMoTaTi,BCC,S,A,,,555 $\pm$ 24,,,,,,,,,,,,,,,,,267
925,new_ref_4,10.1016/j.matdes.2018.06.003,CrMoTaTi,BCC,S,AC,,,539 $\pm$ 32,,,,,,,,,,,,,,,,,267
926,new_ref_4,10.1016/j.matdes.2018.06.003,CrNbTaTi,BCC+Laves (C15),M,A,,,,,,,,,,,,,,,,,,,,267
927,new_ref_4,10.1016/j.matdes.2018.06.003,CrNbTaTi,BCC,S,AC,,,495 $\pm$ 26,,,,,,,,,,,,,,,,,267
928,new_ref_4,10.1016/j.matdes.2018.06.003,CrNbTiW,BCC+Laves (C15),M,A,,,630 $\pm$ 28,,,,,,,,,,,,,,,,,267
929,new_ref_4,10.1016/j.matdes.2018.06.003,CrNbTiW,BCC,S,AC,,,630 $\pm$ 24,,,,,,,,,,,,,,,,,267
930,new_ref_4,10.1016/j.matdes.2018.06.003,HfNbTaTi,BCC,S,A,,,280 $\pm$ 10,,,,,,,,,,,,,,,,,267
931,new_ref_4,10.1016/j.matdes.2018.06.003,HfNbTaTi,BCC,S,AC,,,270 $\pm$ 5,,,,,,,,,,,,,,,,,267
932,new_ref_4,10.1016/j.matdes.2018.06.003,MoNbTaTiW,BCC,S,A,,,482 $\pm$ 10,,,,,,,,,,,,,,,,,267
933,new_ref_4,10.1016/j.matdes.2018.06.003,MoNbTaTiW,BCC,S,AC,,,446 $\pm$ 32,,,,,,,,,,,,,,,,,267
934,new_ref_4,10.1016/j.matdes.2018.06.003,MoNbTaTi,BCC,S,A,,,407 $\pm$ 17,,,,,,,,,,,,,,,,,267
935,new_ref_4,10.1016/j.matdes.2018.06.003,MoNbTaTi,BCC,S,AC,,,431 $\pm$ 7,,,,,,,,,,,,,,,,,267
0,2020-1,10.1016/j.ijrmhm.2020.105322,Al15Hf15Nb30Ti40,B2,single,A,,,,C,25.0,830,,50,,,,,,,,,,,,9
1,2020-1,10.1016/j.ijrmhm.2020.105322,Al15Hf15Nb30Ti40,BCC + sec,multiphase,A,,,,C,25.0,1250,,16,,,,,,,,,,,,9
2,2020-1,10.1016/j.ijrmhm.2020.105322,Al15Hf15Nb30Ti40,B2,single,A,,,,C,600.0,635,,50,,,,,,,,,,,,9
3,2020-1,10.1016/j.ijrmhm.2020.105322,Al15Hf15Nb30Ti40,BCC + sec,multiphase,A,,,,C,600.0,920,,50,,,,,,,,,,,,9