,REFERENCE: tag,REFERENCE: doi,FORMULA,PROPERTY: Type of phases,PROPERTY: Single/Multiphase,PROPERTY: synthesis method,PROPERTY: grain size ($\mu$m),PROPERTY: ROM Density (g/cm$^3$),PROPERTY: HV,PROPERTY: Type of test,PROPERTY: Test temperature ($^\circ$C),PROPERTY: YS (MPa),PROPERTY: UTS (MPa),PROPERTY: Elongation (%),PROPERTY: Elongation plastic (%),PROPERTY: ROM Young modulus (GPa),PROPERTY: Exp. Young modulus (GPa),PROPERTY: O content (wppm),PROPERTY: N content (wppm),PROPERTY: C content (wppm),REFERENCE: comment,Internal Reference #,Original DOI,PROPERTY: Exp. Density (g/cm$^3$),Unnamed: 22,IDENTIFIER: Reference ID
68,J4-85,10.1016/j.scriptamat.2017.05.019,Co35Cr15Fe20Ni20Mo10,FCC + $\mu$,M,CR + A,,,,T,25.0,879,1194,25.4,,,,,,,wrong processing ,85.0,10.1016/j.scriptamat.2017.05.019,,,199
69,J4-85,10.1016/j.scriptamat.2017.05.019,Co35Cr15Fe20Ni20Mo10,FCC + $\mu$,M,CR + A,,,,T,25.0,799,1127,28.2,,,,,,,wrong processing ,85.0,10.1016/j.scriptamat.2017.05.019,,,199
70,J4-85,10.1016/j.scriptamat.2017.05.019,Co35Cr15Fe20Ni20Mo10,FCC,S,CR + A,,,,T,25.0,350,918,62.4,,,,,,,wrong processing ,85.0,10.1016/j.scriptamat.2017.05.019,,,199
71,J4-79,10.1016/j.actamat.2016.06.063,Co25Cr25Fe25Ni25,FCC,S,AC,,,,T,25.0,155,472.4,58.9,,,,,,,,79.0,10.1016/j.actamat.2016.06.063,,,197
72,J4-79,10.1016/j.actamat.2016.06.063,Co24Cr24Fe24Ni24Mo2,,,AC,,,,T,25.0,198.8,479,51.1,,,,,,,,79.0,10.1016/j.actamat.2016.06.063,,,197
73,J4-79,10.1016/j.actamat.2016.06.063,Co24Cr24Fe24Ni24Mo5,,,AC,,,,T,25.0,254.7,589.6,55.1,,,,,,,,79.0,10.1016/j.actamat.2016.06.063,,,197
74,J4-79,10.1016/j.actamat.2016.06.063,Co23Cr23Fe23Ni23Mo7,FCC + $\sigma$,M,AC,,,,T,25.0,305.3,709.7,49.3,,,,,,,,79.0,10.1016/j.actamat.2016.06.063,,,197
75,J4-79,10.1016/j.actamat.2016.06.063,Co23Cr23Fe23Ni23Mo7,FCC + $\mu$ + $\sigma$,M,CR + A,1 - 5,,,T,25.0,815.5,1186.5,18.9,,,,,,,not the actual grain size. precipitate sizes currently recorded,79.0,10.1016/j.actamat.2016.06.063,,,197
76,J4-79,10.1016/j.actamat.2016.06.063,Co23Cr23Fe23Ni23Mo7,FCC + $\mu$ + $\sigma$,M,CR + A,0.2 - 6,,,T,25.0,646.7,1042,32.5,,,,,,,,79.0,10.1016/j.actamat.2016.06.063,,,197
77,J4-79,10.1016/j.actamat.2016.06.063,Co23Cr23Fe23Ni23Mo7,FCC + $\mu$ + $\sigma$,M,CR + A,0.2 - 3,,,T,25.0,683.7,1066.6,30.4,,,,,,,,79.0,10.1016/j.actamat.2016.06.063,,,197
78,J4-38,10.1080/02670836.2017.1342367,CoCrFeMnNi,FCC,,HF+A,13,,,T,25.0,243,558,50,,,,,,,processing isn't technically as cast because it's forged. so hr ,38.0,10.1080/02670836.2017.1342367,,"Further going back to the original paper, i disagree with their noted elongation. Plus the paper switched two of these (https://www.tandfonline.com/doi/full/10.1080/02670836.2017.1342367?scroll=top&needAccess=true) (ef = 58)",177
79,J4-38,10.1080/02670836.2017.1342367,(CoCrFeMnNi)98C2,FCC + Carbide,,HF+A,8,,,T,25.0,446,723,15,,,,,,,processing isn't technically as cast because it's forged. so hr ,38.0,10.1080/02670836.2017.1342367,,"Further going back to the original paper, i disagree with their noted elongation Plus the paper switched two of these (https://www.tandfonline.com/doi/full/10.1080/02670836.2017.1342367?scroll=top&needAccess=true) (ef = 15.5)",177
80,J4-38,10.1080/02670836.2017.1342367,CoCrFeMnNi,FCC,,HF+CR+A,7,,,T,25.0,249,621,41,,,,,,,,38.0,10.1080/02670836.2017.1342367,,ef = 47,177
81,J4-38,10.1080/02670836.2017.1342367,(CoCrFeMnNi)98C2,FCC + Carbide,,HF+CR+A,4,,,T,25.0,581,857,28,,,,,,,fixed grain size ,38.0,10.1080/02670836.2017.1342367,,ef = 35,177
82,J4-78,10.1016/j.actamat.2015.08.076,CoCrFeNi,FCC,S,A,,,,T,25.0,190,453,70,,,,,,,,78.0,10.1016/j.actamat.2015.08.076,,,196
83,J4-78,10.1016/j.actamat.2015.08.076,Al4Co24Cr24Fe24Ni24Ti2,FCC,S,A,289.7,,,T,25.0,210,503,70,,,,,,,added grain size ,78.0,10.1016/j.actamat.2015.08.076,,,196
84,J4-78,10.1016/j.actamat.2015.08.076,Al4Co24Cr24Fe24Ni24Ti2,FCC + L12 + L21,M,CR + A,15.7,,,T,25.0,645,1094,39,,,,,,,added grain size ,78.0,10.1016/j.actamat.2015.08.076,,,196
85,J4-78,10.1016/j.actamat.2015.08.076,Al4Co24Cr24Fe24Ni24Ti2,FCC + L12 + L21,M,CR + A,2.8,,,T,25.0,1005,1273,17,,,,,,,added grain size ,78.0,10.1016/j.actamat.2015.08.076,,,196
86,J4-88,10.1016/j.ultramic.2015.06.009,Al8Co17Cr17Cu8Fe17Ni33,,,A,,,168 $\pm$ 5,,,,,,,,,,,,,88.0,10.1016/j.ultramic.2015.06.009,,,201
87,J4-88,10.1016/j.ultramic.2015.06.009,Al8Co17Cr17Cu8Fe17Ni33,,,A,,,328 $\pm$ 7,,,,,,,,,,,,,88.0,10.1016/j.ultramic.2015.06.009,,,201
88,J4,10.1016/j.matchar.2018.06.036,Al8Co17Cr17Cu8Fe17Ni33,,,A,,,206 $\pm$ 5,,,,,,,,,,,,,,This Article,,,167
89,J4-88,10.1016/j.ultramic.2015.06.009,Al8Co17Cr14Cu8Fe17Ni35W0.1Mo0.1Ti1,,,AC,,,231 $\pm$ 12,,,,,,,,,,,,,88.0,10.1016/j.ultramic.2015.06.009,,,201
90,J4-88,10.1016/j.ultramic.2015.06.009,Al8Co17Cr14Cu8Fe17Ni35W0.1Mo0.1Ti1,,,A,,,178 $\pm$ 7,,,,,,,,,,,,,88.0,10.1016/j.ultramic.2015.06.009,,,201
91,J4-88,10.1016/j.ultramic.2015.06.009,Al8Co17Cr14Cu8Fe17Ni35W0.1Mo0.1Ti1,,,A,,,343 $\pm$ 6,,,,,,,,,,,,,88.0,10.1016/j.ultramic.2015.06.009,,,201
92,J4,10.1016/j.matchar.2018.06.036,Al8Co17Cr14Cu8Fe17Ni35W0.1Mo0.1Ti1,,,A,,,171 $\pm$ 7,,,,,,,,,,,,,,This Article,,,167
93,J4-30,10.1007/s11837-015-1484-7,Al10Co25Cr8Fe15Ni36Ti6,,,AC,,,343 $\pm$ 22,,,,,,,,,,,,,30.0,10.1007/s11837-015-1484-7,,,175
94,J4-30,10.1007/s11837-015-1484-7,Al10Co25Cr8Fe15Ni36Ti6,,,A,,,341 $\pm$ 12,,,,,,,,,,,,,30.0,10.1007/s11837-015-1484-7,,,175
95,J4-30,10.1007/s11837-015-1484-7,Al10Co25Cr8Fe15Ni36Ti6,FCC + L12 + C1,M,A,,,345 $\pm$ 14,T,25.0,568,786,12,,,,,,,,30.0,10.1007/s11837-015-1484-7,,,175
96,J4-30,10.1007/s11837-015-1484-7,Al10Co25Cr8Fe15Ni36Ti6,FCC + L12 + C1,M,A,,,345 $\pm$ 18,T,25.0,596,1039,20,,,,,,,,30.0,10.1007/s11837-015-1484-7,,,175
97,J4-30,10.1007/s11837-015-1484-7,Al10Co25Cr8Fe15Ni36Ti6,FCC + L12 + C1,M,A,,,345 $\pm$ 14,T,700.0,487,702,18,,,,,,,,30.0,10.1007/s11837-015-1484-7,,,175
98,J4-30,10.1007/s11837-015-1484-7,Al10Co25Cr8Fe15Ni36Ti6,FCC + L12 + C1,M,A,,,345 $\pm$ 18,T,700.0,486,624,11,,,,,,,,30.0,10.1007/s11837-015-1484-7,,,175
99,J4-75,10.1016/j.msea.2016.11.019,Al23Cr26Fe26Ni26,BCC + B2,M,AC,,,,C,25.0,770,,37.1,,,,,,,,75.0,10.1016/j.msea.2016.11.019,,,193
100,J4-75,10.1016/j.msea.2016.11.019,AlCrFeNi,BCC + B2,M,AC,,,,C,25.0,843.2,,34.6,,,,,,,,75.0,10.1016/j.msea.2016.11.019,,,193
101,J4-75,10.1016/j.msea.2016.11.019,Al27Cr24Fe24Ni24,BCC + B2,M,AC,,,,C,25.0,1044,,27.1,,,,,,,,75.0,10.1016/j.msea.2016.11.019,,,193
102,J4-75,10.1016/j.msea.2016.11.019,Al29Cr24Fe24Ni24,BCC + B2,M,AC,,,,C,25.0,906.8,,31.4,,,,,,,,75.0,10.1016/j.msea.2016.11.019,,,193
103,J4-75,10.1016/j.msea.2016.11.019,Al30Cr23Fe23Ni23,BCC + B2,M,AC,,,,C,25.0,1122.8,,24.7,,,,,,,,75.0,10.1016/j.msea.2016.11.019,,,193
104,J4-73,10.1016/j.matlet.2016.01.096,Al17Cr17Fe34Ni34,BCC + B2,M,AC,,,,C,25.0,,,17,,,,,,,,73.0,10.1016/j.matlet.2016.01.096,,,191
105,J4-109,10.1016/j.matdes.2013.12.048,AlCoCrFeNi,BCC + B2,M,AC,,,,C,25.0,,,22.7,,,,,,,,109.0,10.1016/j.matdes.2013.12.048,,,168
106,J4-53,10.1016/j.jmst.2014.09.011,Al18Cr18Fe17Ni33Ti9,BCC + B2 + L12,M,AC,,,,C,25.0,,,16.3,,,,,,,,53.0,10.1016/j.jmst.2014.09.011,,,182
107,J4-53,10.1016/j.jmst.2014.09.011,Al18Cr18Fe17Ni33Ti9,BCC + B2 + L12,M,A,,,,C,25.0,,,19.8,,,,,,,,53.0,10.1016/j.jmst.2014.09.011,,,182
108,J4-50,10.1007/s11665-015-1767-8,Cr22Fe22Ni22V11W22,FCC + BCC + $\sigma$,M,AC,,,,C,25.0,,,7.3,,,,,,,,50.0,10.1007/s11665-015-1767-8,,,181
109,J4-110,10.1016/j.msea.2015.09.089,Al17Cr17Cu17Fe17Ni33,FCC + BCC + B2,M,AC,,,,C,25.0,,,30,,,,,,,,110.0,10.1016/j.msea.2015.09.089,,,169
110,J4-96,10.1134/S0031918X17060084,CoCrFeMnNi,FCC,S,A,,,,C,25.0,230,,75,,,,,,,,96.0,10.1134/S0031918X17060084,,,202
111,J4-96,10.1134/S0031918X17060084,Co19Cr19Fe19Mn19Ni19V5,FCC + $\sigma$,M,A,,,,C,25.0,200,,75,,,,,,,,96.0,10.1134/S0031918X17060084,,,202
112,J4-96,10.1134/S0031918X17060084,Co18Cr18Fe18Mn18Ni18V9,FCC + $\sigma$,M,A,,,,C,25.0,620,,75,,,,,,,,96.0,10.1134/S0031918X17060084,,,202
113,J4-96,10.1134/S0031918X17060084,Co17Cr17Fe17Mn17Ni17V13,FCC + $\sigma$,M,A,,,,C,25.0,780,,8,,,,,,,,96.0,10.1134/S0031918X17060084,,,202
114,J4-96,10.1134/S0031918X17060084,CoCrFeMnNiV,FCC + $\sigma$,M,A,,,,C,25.0,1700,,1,,,,,,,,96.0,10.1134/S0031918X17060084,,,202
115,J4-111,10.1016/j.msea.2015.02.072,Al7Co23Cr23Fe23Ni23,FCC,S,AC,,,,C,25.0,,,25,,,,,,,,111.0,10.1016/j.msea.2015.02.072,,,170
116,J4-112,10.1016/j.jallcom.2013.12.210,CoCrFeNi,FCC,S,AC,,,,C,25.0,,,83,,,,,,,,112.0,10.1016/j.jallcom.2013.12.210,,,171
117,J4-74,10.1016/j.actamat.2016.11.016,Al17Cr17Co17Fe17Ni33.3,FCC + B2,M,AC,,,,T,25.0,545,1030,16.5,,,,,,,the values given by the review are a little off from the values provided by the reference itself https://sci-hub.tw/https://doi.org/10.1016/j.actamat.2016.11.016,74.0,10.1016/j.actamat.2016.11.016,,,192
118,J4-74,10.1016/j.actamat.2016.11.016,Al16Cr16Co16Fe16Ni34.4,FCC + B2,M,AC,,,,T,25.0,545,1050,16.5,,,,,,,the values given by the review are a little off from the values provided by the reference itself https://sci-hub.tw/https://doi.org/10.1016/j.actamat.2016.11.017,74.0,10.1016/j.actamat.2016.11.016,,,192
119,J4-74,10.1016/j.actamat.2016.11.016,Al16Cr16Co16Fe16Ni35.5,FCC + B2,M,AC,,,,T,25.0,545,1110,20,,,,,,,the values given by the review are a little off from the values provided by the reference itself https://sci-hub.tw/https://doi.org/10.1016/j.actamat.2016.11.018,74.0,10.1016/j.actamat.2016.11.016,,,192
120,J4-76,10.1016/j.msea.2017.04.111,Al4Co19Cr19Cu4Fe19Ni37,FCC,S,CR + A,,,,T,25.0,719,1048,30,,,,,,,jasper got this right but the review paper got it wrong. They switched which one was two phase,76.0,10.1016/j.msea.2017.04.111,,,194
121,J4-76,10.1016/j.msea.2017.04.111,Al4Co19Cr19Cu4Fe19Ni37,FCC + L12,M,CR + A,,,,T,25.0,460,732,32,,,,,,,jasper got this right but the review paper got it wrong. They switched which one was two phase,76.0,10.1016/j.msea.2017.04.111,,,194
122,J4-86,10.1007/s11837-013-0756-3,Al8Co17Cr17Cu8Fe17Ni33,fcc + L12+ Cr23C6,M,AC,,,,T,25.0,357,459,9,,,,,,,,86.0,10.1007/s11837-013-0756-3,,,200
123,J4-86,10.1007/s11837-013-0756-3,Al8Co17Cr17Cu8Fe17Ni33,fcc + L12+ Cr23C6,M,A,,,,T,25.0,365,365,0.1,,,,,,,,86.0,10.1007/s11837-013-0756-3,,,200
124,J4-86,10.1007/s11837-013-0756-3,Al8Co17Cr17Cu8Fe17Ni33,FCC + L12,M,A,,,,T,25.0,215,489,39,,,,,,,,86.0,10.1007/s11837-013-0756-3,,,200
125,J4-113,10.1016/j.actamat.2015.07.004,Al9Co18Cr18Cu18Fe18Ni18,FCC1 + FCC2,M,A + CR,,,,T,25.0,1284,1344,7.6,,,,,,,Inverted order of processing ,113.0,10.1016/j.actamat.2015.07.004,,,172
126,J4-114,10.1016/j.jallcom.2009.10.088,Al9Co18Cr18Cu18Fe18Ni18,FCC,S,CR,,,,T,25.0,1290,1400,5,,,,,,,,114.0,10.1016/j.jallcom.2009.10.088,,,173
127,J4-114,10.1016/j.jallcom.2009.10.088,Al9Co18Cr18Cu18Fe18Ni18,FCC1 + FCC2,M,CR + A,,,,T,25.0,650,790,27,,,,,,,,114.0,10.1016/j.jallcom.2009.10.088,,,173
128,J4-42,10.1016/j.msea.2011.11.045,AlCoCrCuFeNi,BCC + FCC1 + FCC2,M,AC,,,,T,25.0,790,790,0.2,,,,,,,,42.0,10.1016/j.msea.2011.11.045,,,180
129,J4-42,10.1016/j.msea.2011.11.045,AlCoCrCuFeNi,BCC + FCC1 + FCC2 + $\sigma$,M,HF,,,,T,25.0,1040,1170,1,,,,,,,forging isn't as cast,42.0,10.1016/j.msea.2011.11.045,,,180
130,J4-72,10.1016/j.msea.2015.08.078,AlCoCrFeNi,BCC + B2,M,AC,,,,T,700.0,395,400,1,,,,,,,tests were all done at 700C ,72.0,10.1016/j.msea.2015.08.078,,,190
131,J4-72,10.1016/j.msea.2015.08.078,AlCoCrFeNi,BCC + B2 + FCC + $\sigma$,M,HIP + A,,,,T,700.0,295,393,12,,,,,,,tests were all done at 700C; changed processing from AC to HIPED + A,72.0,10.1016/j.msea.2015.08.078,,,190
132,J4-42,10.1016/j.msea.2011.11.045,AlCoCrCuFeNi,BCC + FCC1 + FCC2,M,AC,,,,T,700.0,350,360,5,,,,,,,tests were all done at 700C ,42.0,10.1016/j.msea.2011.11.045,,,180
133,J4-42,10.1016/j.msea.2011.11.045,AlCoCrCuFeNi,BCC + FCC1 + FCC2 + $\sigma$,M,HF,,,,T,700.0,63,91,63,,,,,,,tests were all done at 700C; changed processing from AC to F,42.0,10.1016/j.msea.2011.11.045,,,180
134,J4-114,10.1016/j.jallcom.2009.10.088,Al9Co18Cr18Cu18Fe18Ni18,FCC,S,CR,,,,T,700.0,180,185,5,,,,,,,tests were all done at 700C ,114.0,10.1016/j.jallcom.2009.10.088,,,173
135,J4-114,10.1016/j.jallcom.2009.10.088,Al9Co18Cr18Cu18Fe18Ni18,FCC1 + FCC2,M,CR + A,,,,T,700.0,160,180,12,,,,,,,tests were all done at 700C ,114.0,10.1016/j.jallcom.2009.10.088,,,173
136,J5,10.1016/j.actamat.2018.11.049,FeCoNiCrTi0.2,FCC,S,CR + A,51,,,T,25.0,700,1240,36,,,,,,,"missed the ductility values, incorrect processing (from AC to CR + A), grain size to 51",,,,,214
137,J5,10.1016/j.actamat.2018.11.049,FeCoNiCrTi0.2,FCC,S,CR + A,,,,T,-196.0,860,1580,46,,,,,,,"missed the ductility values, incorrect processing (from AC to CR + A), grain size to 51",,,,,214
138,J6,10.1016/j.actamat.2018.12.012,Al0.1CoCrFeNi,FCC,S,CR,20,,,T,25.0,1198 $\pm$ 27,,1.5 $\pm$ 0.3,,,,,,,,,,,,222
139,J6,10.1016/j.actamat.2018.12.012,Al0.1CoCrFeNi,FCC,S,CR + A,20,,,T,25.0,1403 $\pm$ 20,,1.2 $\pm$ 0.1,,,,,,,"For future reference, any repeated formulat that includes Annealing (A) as synthesis method is assumed to have varying annealing duration and temperatures as the experimental variable",,,,,222
140,J6,10.1016/j.actamat.2018.12.012,Al0.1CoCrFeNi,FCC,S,CR + A,20,,,T,25.0,711 $\pm$ 40,928 $\pm$ 35,30.3 $\pm$ 3.7,,,,,,,,,,,,222
141,J6,10.1016/j.actamat.2018.12.012,Al0.1CoCrFeNi,FCC,S,CR + A,7,,,T,25.0,356 $\pm$ 13,,42.4 $\pm$ 0.6,,,,,,,,,,,,222
142,J7,10.1016/j.msea.2018.10.094,CoCrFeMnNi,FCC,S,CR + A,0.5,,,T,25.0,1120,,1.1,,,,,,,,,,,,236
143,J7,10.1016/j.msea.2018.10.094,CoCrFeMnNi,FCC,S,CR + A,,,,T,-196.0,1692,,10.3,,,,,,,,,,,,236
144,J8,10.1016/j.jallcom.2018.08.176,CrFeNi2Al,FCC + BCC + B2,M,AC,,,,T,25.0,774,1357,6.4,,,,,,,,,,,,245
145,J8,10.1016/j.jallcom.2018.08.176,CrFeNi2.1Al0.9,FCC + BCC + B2,M,AC,,,,T,25.0,610,1173,9.1,,,,,,,,,,,,245
146,J8,10.1016/j.jallcom.2018.08.176,CrFeNi2.2Al0.8,FCC + BCC + B2,M,AC,,,,T,25.0,479,956,12.7,,,,,,,,,,,,245
147,J8,10.1016/j.jallcom.2018.08.176,CrFeNi2.3Al0.7,FCC + BCC + B2,M,AC,,,,T,25.0,461,835,30,,,,,,,,,,,,245
148,J8,10.1016/j.jallcom.2018.08.176,CrFeNi2.4Al0.6,FCC,S,AC,,,,T,25.0,441,757,45,,,,,,,,,,,,245
149,J10,10.1016/j.actamat.2018.12.015,CrCoNi,FCC,S,CR + A,1.6,,468,T,25.0,1100,,23,,,,,,,changed grain size,,,,,98
150,J10,10.1016/j.actamat.2018.12.015,CrCoNi,FCC,S,CR + A,2.3,,326,T,25.0,597,,53,,,,,,,new data,,,,,98
151,J10,10.1016/j.actamat.2018.12.015,CrCoNi,FCC,S,CR + A,24,,223,T,25.0,346,,76,,,,,,,new data,,,,,98
152,J11,10.1038/s41467-019-08460-2,AlCoCrFeNi2.1,FCC + B2,M,CR + A,,,,T,25.0,1263,,21.4,,,,,,,recorded ref value not true values; had to go to supplementary,,,,,105
153,J11,10.1038/s41467-019-08460-2,AlCoCrFeNi2.1,FCC + B2,M,CR + A,,,,T,25.0,1154,,25,,,,,,,new values,,,,,105
154,J11,10.1038/s41467-019-08460-2,AlCoCrFeNi2.1,FCC + B2,M,CR + A,,,,T,25.0,1490,,16,,,,,,,new values,,,,,105
155,J12,10.1016/j.scriptamat.2018.11.042,CrMnFeCoNi,FCC,S,AC,,,130.2,C,25.0,210,,57,,,,,,,pulled ductility off plot,,,,,115
156,J12,10.1016/j.scriptamat.2018.11.042,CrMnFeCoNi,FCC,S,CR,,,394.1,C,25.0,1150,,6,,,,,,,pulled ductility off plot,,,,,115
157,J12,10.1016/j.scriptamat.2018.11.042,CrMnFeCoNi,FCC,S,CR + A,,,430.7,C,25.0,1300,,0.7,,,,,,,pulled ductility off plot,,,,,115
158,J13,10.1016/j.jallcom.2018.10.230,NbTaTiV,BCC,S,SPS,24,,427.9,C,25.0,1108,,28.3,,,,,,,Sintered @ 1500 C; pulled ductility off of plot,,,,,125
159,J13,10.1016/j.jallcom.2018.10.230,NbTaTiV,BCC,S,SPS,30,,444.3,C,25.0,1308,,27.9,,,,,,,Sintered @ 1600 C; pulled ductility off of plot,,,,,125
160,J13,10.1016/j.jallcom.2018.10.230,NbTaTiV,BCC,S,SPS,38,,510.9,C,25.0,1373,,29.5,,,,4800.0,,1900.0,Sintered @ 1700 C; pulled ductility off of plot,,,,,125
161,J14,10.1016/j.jmst.2018.09.068,CoCrFeMnNi,FCC,S,CR + A,30,,,T,25.0,300,676,52,,,,,,,changed ductility to engineering strain ,,,,,135
162,J14,10.1016/j.jmst.2018.09.068,CoCrFeMnNi,FCC,S,CR + A,0.65,,,T,25.0,800,888,39.5,,,,,,,changed ductility to engineering strain ,,,,,135
163,J15,10.1016/j.jallcom.2018.10.168,FeCoCrNiMn,FCC + BCC,M,AC,0.4,,415,C,25.0,1314,,,20.3,,,,,,,,,,,136
164,J15,10.1016/j.jallcom.2018.10.168,FeCoCrNiMnAl0.1,FCC + BCC,M,AC,,,432,C,25.0,1631,,,12.6,,,,,,,,,,,136
165,J15,10.1016/j.jallcom.2018.10.168,FeCoCrNiMnAl0.3,FCC + BCC,M,AC,0.2,,511,C,25.0,1836,,,4.9,,,,,,,,,,,136
166,J15,10.1016/j.jallcom.2018.10.168,FeCoCrNiMnAl0.5,FCC + BCC,M,AC,,,553,C,25.0,1932,,,3.8,,,,,,,,,,,136
167,J15,10.1016/j.jallcom.2018.10.168,FeCoCrNiMnAl0.7,FCC + BCC,M,AC,0.2,,622,C,25.0,2230,,,1.69,,,,,,,,,,,136
168,J15,10.1016/j.jallcom.2018.10.168,FeCoCrNiMnAl1,FCC + BCC,M,AC,,,684,C,25.0,,,,0,,,,,,,,,,,136
169,J16,10.1007/s40843-018-9373-y,CoCrFeNi,FCC,S,A + HF,,,,T,20.0,446,664,63,,,189,,,,,,,,,137
170,J16,10.1007/s40843-018-9373-y,CoCrFeNi,FCC,S,A + HF,,,,T,-73.0,488,790,72,,,194,,,,,,,,,137
171,J16,10.1007/s40843-018-9373-y,CoCrFeNi,FCC,S,A + HF,,,,T,-196.0,590,1070,78,,,204,,,,-796 corrected to -196,,,,,137
172,J16,10.1007/s40843-018-9373-y,CoCrFeNi,FCC,S,A + HF,,,,T,-223.0,,1152 $\pm$ 8,68.6 $\pm$ 3.3,,,,,,,,,,,,137
173,J16,10.1007/s40843-018-9373-y,CoCrFeNi,FCC,S,A + HF,,,,T,-253.0,,1240 $\pm$ 40,62 $\pm$ 0.6,,,,,,,,,,,,137
174,J16,10.1007/s40843-018-9373-y,CoCrFeNi,FCC,S,A + HF,,,,T,-268.8,680,1251 $\pm$ 10,61.6 $\pm$ 1.6,,,221,,,,,,,,,137
175,J17,10.1016/j.matdes.2019.107698,CoCrFeNi,FCC,S,AC,,,94.7,,,,,,,,,,,,Pulled hardness data off plot,,,,,138
176,J17,10.1016/j.matdes.2019.107698,Al0.3CoCrFeNi,FCC,S,AC,,,117,,,,,,,,,,,,Pulled hardness data off plot,,,,,138
177,J17,10.1016/j.matdes.2019.107698,Al0.6CoCrFeNi,FCC + BCC + B2,M,AC,,,228,,,,,,,,,,,,Pulled hardness data off plot,,,,,138
178,J17,10.1016/j.matdes.2019.107698,Al0.9CoCrFeNi,FCC + BCC + B2,M,AC,,,511,,,,,,,,,,,,Pulled hardness data off plot,,,,,138
179,J17,10.1016/j.matdes.2019.107698,Al0.9CoCrFeNiTi0.5,BCC + B2 + Im,M,AC,,,623,,,,,,,,,,,,Pulled hardness data off plot,,,,,138
180,J18,10.1016/j.jmst.2018.10.009,CoCrFeMnNi,FCC,S,AC,,,,C,25.0,216,,,,,,,,,,,,,,139
181,J18,10.1016/j.jmst.2018.10.009,(CoCrFeMnNi)96Mo4,FCC,S,AC,,,,C,25.0,225,,,,,,,,,,,,,,139
182,J18,10.1016/j.jmst.2018.10.009,(CoCrFeMnNi)92Mo8,FCC + $\sigma$,M,AC,,,,C,25.0,330,,,,,,,,,,,,,,139
183,J18,10.1016/j.jmst.2018.10.009,(CoCrFeMnNi)88Mo12,FCC + $\sigma$,M,AC,,,,C,25.0,560,,,,,,,,,,,,,,139
184,J18,10.1016/j.jmst.2018.10.009,(CoCrFeMnNi)84Mo16,FCC + $\sigma$,M,AC,,,,C,25.0,765,,,,,,,,,,,,,,139
185,J20,10.1016/j.scriptamat.2018.10.023,Al0.3CoCrFeNi,FCC + L12,M,CR,,,,T,25.0,143,400,65,,,,,,,,,,,,141
186,J20,10.1016/j.scriptamat.2018.10.023,Al0.3CoCrFeNi,FCC + L12,M,CR + A,,,,T,25.0,471,850,45,,,,,,,,,,,,141
187,J20,10.1016/j.scriptamat.2018.10.023,Al0.3CoCrFeNi,FCC + B2 + $\sigma$,M,CR + A,,,,T,25.0,841,1050,35,,,,,,,,,,,,141
188,J20,10.1016/j.scriptamat.2018.10.023,Al0.3CoCrFeNi,FCC + BCC + B2 + $\sigma$,M,CR + A,,,,T,25.0,161,1650,7,,,,,,,,,,,,141
189,J20,10.1016/j.scriptamat.2018.10.023,Al0.3CoCrFeNi,FCC + BCC + B2 + $\sigma$,M,CR + A,,,,T,25.0,187,1850,5,,,,,,,,,,,,141
190,J21,10.1016/j.jallcom.2018.11.057,AlCoCrNi,BCC + B2,M,AC,,,1183 $\pm$ 20,C,25.0,1750 $\pm$ 50,,16.7 $\pm$ 0.9,,,,,,,hardness units in GPA,,,,,142
191,J23,10.1016/j.msea.2019.01.050,FeCoCrNiMn,FCC,S,CR + A,7.9,,,T,25.0,378.7,700.1,54,,,,,,,,,,,,143
192,J23,10.1016/j.msea.2019.01.050,FeCoCrNiMnC0.5,FCC,M,CR + A,4.7,,,T,25.0,520.9,791.4,40.3,,,,,,36380.0,Note: these alloys were intentionally designed to contain carbon,,,,,143
193,J23,10.1016/j.msea.2019.01.050,FeCoCrNiMnC1,FCC,M,CR + A,3.5,,,T,25.0,643.8,887.6,31.9,,,,,,30300.0,Note: these alloys were intentionally designed to contain carbon,,,,,143
194,J24,10.1016/j.ijplas.2018.10.005,Cr20Fe6Co34Ni34Mo6,FCC,S,CR,,,,T,25.0,,,8,,,,,,,,,,,,144
195,J24,10.1016/j.ijplas.2018.10.005,Cr20Fe6Co34Ni34Mo6,FCC,S,CR + A,0.7,,,T,25.0,,,14,,,,,,,extracted data from plots,,,,,144
196,J24,10.1016/j.ijplas.2018.10.005,Cr20Fe6Co34Ni34Mo6,FCC,S,CR + A,0.8,,,T,25.0,1100,1300,32,,,,,,,extracted data from plots,,,,,144
197,J24,10.1016/j.ijplas.2018.10.005,Cr20Fe6Co34Ni34Mo6,FCC,S,CR + A,1.2,,,T,25.0,950,,36,,,,,,,extracted data from plots,,,,,144
198,J24,10.1016/j.ijplas.2018.10.005,Cr20Fe6Co34Ni34Mo6,FCC,S,CR + A,3.2,,,T,25.0,649,,42,,,,,,,extracted data from plots,,,,,144
199,J24,10.1016/j.ijplas.2018.10.005,Cr20Fe6Co34Ni34Mo6,FCC,S,CR + A,18.2,,,T,25.0,439,,63,,,,,,,extracted data from plots,,,,,144