,REFERENCE: tag,REFERENCE: doi,FORMULA,PROPERTY: Type of phases,PROPERTY: Single/Multiphase,PROPERTY: synthesis method,PROPERTY: grain size ($\mu$m),PROPERTY: ROM Density (g/cm$^3$),PROPERTY: HV,PROPERTY: Type of test,PROPERTY: Test temperature ($^\circ$C),PROPERTY: YS (MPa),PROPERTY: UTS (MPa),PROPERTY: Elongation (%),PROPERTY: Elongation plastic (%),PROPERTY: ROM Young modulus (GPa),PROPERTY: Exp. Young modulus (GPa),PROPERTY: O content (wppm),PROPERTY: N content (wppm),PROPERTY: C content (wppm),REFERENCE: comment,Internal Reference #,Original DOI,PROPERTY: Exp. Density (g/cm$^3$),Unnamed: 22,IDENTIFIER: Reference ID
638,new_ref_4,10.1016/j.matdes.2018.06.003,CrMoTaTi,BCC,S,AC,,,539 $\pm$ 32,,,,,,,,,,,,,,,,,278
639,new_ref_4,10.1016/j.matdes.2018.06.003,CrNbTaTi,BCC+Laves (C15),M,A,,,,,,,,,,,,,,,,,,,,278
640,new_ref_4,10.1016/j.matdes.2018.06.003,CrNbTaTi,BCC,S,AC,,,495 $\pm$ 26,,,,,,,,,,,,,,,,,278
641,new_ref_4,10.1016/j.matdes.2018.06.003,CrNbTiW,BCC+Laves (C15),M,A,,,630 $\pm$ 28,,,,,,,,,,,,,,,,,278
642,new_ref_4,10.1016/j.matdes.2018.06.003,CrNbTiW,BCC,S,AC,,,630 $\pm$ 24,,,,,,,,,,,,,,,,,278
643,new_ref_4,10.1016/j.matdes.2018.06.003,HfNbTaTi,BCC,S,A,,,280 $\pm$ 10,,,,,,,,,,,,,,,,,278
644,new_ref_4,10.1016/j.matdes.2018.06.003,HfNbTaTi,BCC,S,AC,,,270 $\pm$ 5,,,,,,,,,,,,,,,,,278
645,new_ref_4,10.1016/j.matdes.2018.06.003,MoNbTaTiW,BCC,S,A,,,482 $\pm$ 10,,,,,,,,,,,,,,,,,278
646,new_ref_4,10.1016/j.matdes.2018.06.003,MoNbTaTiW,BCC,S,AC,,,446 $\pm$ 32,,,,,,,,,,,,,,,,,278
647,new_ref_4,10.1016/j.matdes.2018.06.003,MoNbTaTi,BCC,S,A,,,407 $\pm$ 17,,,,,,,,,,,,,,,,,278
648,new_ref_4,10.1016/j.matdes.2018.06.003,MoNbTaTi,BCC,S,AC,,,431 $\pm$ 7,,,,,,,,,,,,,,,,,278
0,J2,10.1016/j.scriptamat.2018.08.048,Al0.3CoCrFeNi,FCC + B2 + Sigma,M,CR + A,0.71 $\pm$ 0.35,,,T,25.0,900,1074,25,,,,,,,,,,,,142
1,J3,10.1016/j.jallcom.2018.08.093,Fe40Mn25Cr20Ni15,FCC + BCC,M,AC,75,,,C,25.0,219,,,,,,,,,,,,,,158
2,J3,10.1016/j.jallcom.2018.08.093,Fe40Mn25Cr20Ni15Al2,FCC + BCC,M,AC,,,,C,25.0,354,,,,,,,,,,,,,,158
3,J3,10.1016/j.jallcom.2018.08.093,Fe40Mn25Cr20Ni15Al6,FCC + BCC,M,AC,,,,C,25.0,550,,,,,,,,,,,,,,158
4,J3,10.1016/j.jallcom.2018.08.093,Fe40Mn25Cr20Ni15Al10,B2 + BCC,M,AC,175,,,C,25.0,994,,,,,,,,,,,,,,158
5,J3,10.1016/j.jallcom.2018.08.093,Fe40Mn25Cr20Ni15Al14,B2 + BCC,M,AC,175,,,C,25.0,942,,,,,,,,,,,,,,158
6,J3,10.1016/j.jallcom.2018.08.093,Fe40Mn25Cr20Ni15,FCC + BCC,M,AC,,,,C,400.0,132,,,,,,,,,,,,,,158
7,J3,10.1016/j.jallcom.2018.08.093,Fe40Mn25Cr20Ni15Al2,FCC + BCC,M,AC,,,,C,400.0,260,,,,,,,,,,,,,,158
8,J3,10.1016/j.jallcom.2018.08.093,Fe40Mn25Cr20Ni15Al6,FCC + BCC,M,AC,,,,C,400.0,469,,,,,,,,,,,,,,158
9,J3,10.1016/j.jallcom.2018.08.093,Fe40Mn25Cr20Ni15Al10,B2 + BCC,M,AC,,,,C,400.0,943,,,,,,,,,,,,,,158
10,J3,10.1016/j.jallcom.2018.08.093,Fe40Mn25Cr20Ni15Al14,B2 + BCC,M,AC,,,,C,400.0,833,,,,,,,,,,,,,,158
11,J3,10.1016/j.jallcom.2018.08.093,Fe40Mn25Cr20Ni15,FCC + BCC,M,AC,,,,C,600.0,115,,,,,,,,,,,,,,158
12,J3,10.1016/j.jallcom.2018.08.093,Fe40Mn25Cr20Ni15Al2,FCC + BCC,M,AC,,,,C,600.0,155,,,,,,,,,,,,,,158
13,J3,10.1016/j.jallcom.2018.08.093,Fe40Mn25Cr20Ni15Al6,FCC + BCC,M,AC,,,,C,600.0,272,,,,,,,,,,,,,,158
14,J3,10.1016/j.jallcom.2018.08.093,Fe40Mn25Cr20Ni15Al10,B2 + BCC,M,AC,,,,C,600.0,359,,,,,,,,,,,,,,158
15,J3,10.1016/j.jallcom.2018.08.093,Fe40Mn25Cr20Ni15Al14,B2 + BCC,M,AC,,,,C,600.0,326,,,,,,,,,,,,,,158
16,J4-8,10.1016/j.actamat.2013.06.018,CoCrFeMnNi,FCC,S,CR + A,4.4,,,T,25.0,370,670,56,,,,,,,switched to engineering stress strain ,8.0,10.1016/j.actamat.2013.06.018,,https://doi.org/10.1016/j.actamat.2013.06.018,207
17,J4-18,10.1016/j.actamat.2017.03.069,Co10Cr10Fe50Mn30,FCC + HCP,M,A,45,,,T,25.0,250,730,50,,,,,,,switched to engineering stress strain ,18.0,10.1016/j.actamat.2017.03.069,,,183
18,J4-18,10.1016/j.actamat.2017.03.069,Co10Cr10Fe50Mn30,FCC + HCP,M,CR + A,4.5,,,T,25.0,330,870,75,,,,,,,switched to engineering stress strain ,18.0,10.1016/j.actamat.2017.03.069,,,183
19,J4-18,10.1016/j.actamat.2017.03.069,Co10Cr10Fe50Mn30,FCC + HCP,M,CR + A,6,,,T,25.0,280,800,65,,,,,,,switched to engineering stress strain ,18.0,10.1016/j.actamat.2017.03.069,,,183
20,J4-18,10.1016/j.actamat.2017.03.069,Co10Cr10Fe50Mn30,FCC + HCP,M,CR + A,15,,,T,25.0,350,830,63,,,,,,,switched to engineering stress strain ,18.0,10.1016/j.actamat.2017.03.069,,,183
21,J4-34,10.1038/s41598-017-16509-9,Co10Cr10Fe50Mn30,FCC + HCP,M,HR + A,6.5,,,T,25.0,298,1400,45,,,,,,,removed true stress strain values,34.0,10.1038/s41598-017-16509-9,,,185
22,J4-34,10.1038/s41598-017-16509-9,Co10Cr10Fe50Mn30,FCC + HCP,M,HR + A,5.2,,,T,25.0,400,1200,42,,,,,,,removed true stress strain values,34.0,10.1038/s41598-017-16509-9,,,185
23,J4-60,10.1016/j.matlet.2017.04.072,Al7Co23Cr23Fe23Ni23,FCC + B2,M,,0.7,,,T,25.0,860,1050,48,,,,,,,"Data extracted from Table 6, does not belong in below data",60.0,10.1016/j.matlet.2017.04.072,,,192
24,J4-60,10.1016/j.matlet.2017.04.072,Al7Co23Cr23Fe23Ni23,FCC + B2,M,,2.7,,,T,25.0,690,930,51,,,,,,,,60.0,10.1016/j.matlet.2017.04.072,,,192
25,J4-60,10.1016/j.matlet.2017.04.072,Al7Co23Cr23Fe23Ni23,FCC + B2,M,,3.8,,,T,25.0,550,800,64,,,,,,,,60.0,10.1016/j.matlet.2017.04.072,,,192
26,J4-60,10.1016/j.matlet.2017.04.072,Al7Co23Cr23Fe23Ni23,FCC,S,,53,,,T,25.0,260,620,87,,,,,,,,60.0,10.1016/j.matlet.2017.04.072,,,192
27,J4-60,10.1016/j.matlet.2017.04.072,Al7Co23Cr23Fe23Ni23,FCC + BCC,M,CR + A,,,,,,,,,,,,,,,,60.0,10.1016/j.matlet.2017.04.072,,,192
28,J4-40,10.1016/j.scriptamat.2016.06.019,Al7Co23Cr23Fe23Ni23,FCC,S,CR + A,,,,,,,,,,,,,,,,40.0,10.1016/j.scriptamat.2016.06.019,,,188
29,J4-40,10.1016/j.scriptamat.2016.06.019,Al7Co23Cr23Fe23Ni23,FCC + L12,M,CR + A,,,,,,,,,,,,,,,,40.0,10.1016/j.scriptamat.2016.06.019,,,188
30,J4-40,10.1016/j.scriptamat.2016.06.019,Al7Co23Cr23Fe23Ni23,FCC + L12,M,CR + A,,,,,,,,,,,,,,,,40.0,10.1016/j.scriptamat.2016.06.019,,,188
31,J4-39,10.1016/j.matdes.2017.02.072,Al7Co23Cr23Fe23Ni23,FCC,S,CR + A,144,,,T,25.0,159,410,65,,,,,,,,39.0,10.1016/j.matdes.2017.02.072,,,187
32,J4-39,10.1016/j.matdes.2017.02.072,Al7Co23Cr23Fe23Ni23,FCC + B2,M,CR + A,144,,,T,25.0,215,520,43,,,,,,,,39.0,10.1016/j.matdes.2017.02.072,,,187
33,J4-39,10.1016/j.matdes.2017.02.072,Al7Co23Cr23Fe23Ni23,FCC + L12,M,CR + A,144,,,T,25.0,285,540,55,,,,,,,,39.0,10.1016/j.matdes.2017.02.072,,,187
34,J4-39,10.1016/j.matdes.2017.02.072,Al7Co23Cr23Fe23Ni23,FCC,S,CR + A,23,,,T,25.0,263,589,60,,,,,,,,39.0,10.1016/j.matdes.2017.02.072,,,187
35,J4-39,10.1016/j.matdes.2017.02.072,Al7Co23Cr23Fe23Ni23,FCC + L12 + B2,M,CR + A,23,,,T,25.0,490,840,45,,,,,,,,39.0,10.1016/j.matdes.2017.02.072,,,187
36,J4-61,10.1016/j.actamat.2017.03.066,Al7Co23Cr23Fe23Ni23,FCC + BCC,M,A,,,,,,,,,,,,,,,,61.0,10.1016/j.actamat.2017.03.066,,,193
37,J4-62,10.1016/j.jallcom.2008.12.088,Al7Co23Cr23Fe23Ni23,FCC + L12,M,AC,,,,T,25.0,175,335,58,,,,,,,Added and replaced data sets,62.0,10.1016/j.jallcom.2008.12.088,,,194
38,J4-62,10.1016/j.jallcom.2008.12.088,Al7Co23Cr23Fe23Ni23,FCC + L12,M,A,,,,T,25.0,305,525,44,,,,,,,,62.0,10.1016/j.jallcom.2008.12.088,,,194
39,J4-62,10.1016/j.jallcom.2008.12.088,Al7Co23Cr23Fe23Ni23,FCC + B2,M,A,,,,T,25.0,280,570,44,,,,,,,,62.0,10.1016/j.jallcom.2008.12.088,,,194
40,J4-63,10.1016/j.jallcom.2013.11.084,Al7Co23Cr23Fe23Ni23,FCC,S,Aged,,,,,,,,,,,,,,,,63.0,10.1016/j.jallcom.2013.11.084,,,195
41,J4-63,10.1016/j.jallcom.2013.11.084,Al7Co23Cr23Fe23Ni23,FCC,S,Aged,,,,,,,,,,,,,,,,63.0,10.1016/j.jallcom.2013.11.084,,,195
42,J4-64,10.1016/j.matdes.2016.05.079,Al7Co23Cr23Fe23Ni23,FCC + B2,M,Aged,,,,,,,,,,,,,,,,64.0,10.1016/j.matdes.2016.05.079,,,196
43,J4-71,10.1016/j.jallcom.2017.03.307,AlCoCrFeNi,BCC + B2,M,AC,,,,T,25.0,395,400,1,,,,,,,I don't like this reference...,71.0,10.1016/j.jallcom.2017.03.307,,,198
44,J4-70,10.1016/j.jallcom.2016.05.034,AlCoCrFeNi,BCC + B2,M,AC,,,,C,25.0,1380,,10,,,,,,,,70.0,10.1016/j.jallcom.2016.05.034,,,197
45,J4-70,10.1016/j.jallcom.2016.05.034,AlCoCrFeNi,BCC + $\sigma$ + B2 + FCC,M,A,,,,C,25.0,1430,,1.6,,,,,,,,70.0,10.1016/j.jallcom.2016.05.034,,,197
46,J4-70,10.1016/j.jallcom.2016.05.034,AlCoCrFeNi,BCC + B2 + FCC,M,A,,,,C,25.0,1690,,2.7,,,,,,,,70.0,10.1016/j.jallcom.2016.05.034,,,197
47,J4-70,10.1016/j.jallcom.2016.05.034,AlCoCrFeNi,BCC + B2 + FCC,M,A,,,,C,25.0,1220,,13,,,,,,,,70.0,10.1016/j.jallcom.2016.05.034,,,197
48,J4-70,10.1016/j.jallcom.2016.05.034,AlCoCrFeNi,BCC + B2 + FCC,M,A,,,,C,25.0,1450,,20,,,,,,,,70.0,10.1016/j.jallcom.2016.05.034,,,197
49,J4-71,10.1016/j.jallcom.2017.03.307,AlCoCrFeNi,FCC + BCC,M,A,,,,T,25.0,900,935,0.8,,,,,,,I don't like this reference...,71.0,10.1016/j.jallcom.2017.03.307,,,198
50,J4-73,10.1016/j.matlet.2016.01.096,Al17Cr17Fe33Ni33,FCC + BCC + B2,M,AC,,,,T,25.0,796,1437,15.7,,,,,,,,73.0,10.1016/j.matlet.2016.01.096,,,200
51,J4-74,10.1016/j.actamat.2016.11.016,Al17Co17Cr17Fe17Ni33.3,L12 + B2,M,,,,,T,25.0,545,1030,16.5,,,,,,,the reference has more accurate numbers: https://sci-hub.tw/https://doi.org/10.1016/j.actamat.2016.11.016,74.0,10.1016/j.actamat.2016.11.016,,,201
52,J4-74,10.1016/j.actamat.2016.11.016,Al16Co16Cr16Fe16Ni34.4,L12 + B2,M,,,,,T,25.0,545,1050,16.5,,,,,,,the reference has more accurate numbers: https://sci-hub.tw/https://doi.org/10.1016/j.actamat.2016.11.017,74.0,10.1016/j.actamat.2016.11.016,,,201
53,J4-74,10.1016/j.actamat.2016.11.016,Al16Co16Cr16Fe16Ni35.5,L12 + B2,M,,,,,T,25.0,545,1110,20,,,,,,,the reference has more accurate numbers: https://sci-hub.tw/https://doi.org/10.1016/j.actamat.2016.11.018,74.0,10.1016/j.actamat.2016.11.016,,,201
54,J4-74,10.1016/j.actamat.2016.11.016,Al17Co17Cr17Fe17Ni33.3,,,,,,,T,-70.0,580,1034,10.5,,,,,,,the reference has more accurate numbers: https://sci-hub.tw/https://doi.org/10.1016/j.actamat.2016.11.019,74.0,10.1016/j.actamat.2016.11.016,,,201
55,J4-74,10.1016/j.actamat.2016.11.016,Al16Co16Cr16Fe16Ni34.4,,,,,,,T,-70.0,595,1168,15.8,,,,,,,the reference has more accurate numbers: https://sci-hub.tw/https://doi.org/10.1016/j.actamat.2016.11.020,74.0,10.1016/j.actamat.2016.11.016,,,201
56,J4-74,10.1016/j.actamat.2016.11.016,Al16Co16Cr16Fe16Ni35.5,,,,,,,T,-70.0,570,1143,18,,,,,,,the reference has more accurate numbers: https://sci-hub.tw/https://doi.org/10.1016/j.actamat.2016.11.021,74.0,10.1016/j.actamat.2016.11.016,,,201
57,J4-74,10.1016/j.actamat.2016.11.016,Al17Co17Cr17Fe17Ni33.3,,,,,,,T,-192.0,700,1000,4,,,,,,,UTS range (low value recorded),74.0,10.1016/j.actamat.2016.11.016,,,201
58,J4-74,10.1016/j.actamat.2016.11.016,Al16Co16Cr16Fe16Ni34.4,,,,,,,T,-192.0,700,1000,7,,,,,,,UTS range (low value recorded),74.0,10.1016/j.actamat.2016.11.016,,,201
59,J4-74,10.1016/j.actamat.2016.11.016,Al16Co16Cr16Fe16Ni35.5,,,,,,,T,-192.0,700,1000,9,,,,,,,UTS range (low value recorded),74.0,10.1016/j.actamat.2016.11.016,,,201
60,J4-77,10.1016/j.scriptamat.2016.04.014,Al12Co18Cr18Fe35Ni18,BCC + B2,M,AC,,,,T,25.0,866,1223,7.9,,,,,,,,77.0,10.1016/j.scriptamat.2016.04.014,,,204
61,J4-77,10.1016/j.scriptamat.2016.04.014,Al12Co18Cr18Fe35Ni18,,,AC,,,,T,650.0,400,468,6.3,,,,,,,,77.0,10.1016/j.scriptamat.2016.04.014,,,204
62,J4-77,10.1016/j.scriptamat.2016.04.014,Al12Co18Cr18Fe35Ni18,,,AC,,,,T,700.0,220,340,5.4,,,,,,,,77.0,10.1016/j.scriptamat.2016.04.014,,,204
63,J4-77,10.1016/j.scriptamat.2016.04.014,Al12Co18Cr18Fe35Ni18,,,AC,,,,C,25.0,1166,,30.2,,,,,,,,77.0,10.1016/j.scriptamat.2016.04.014,,,204
64,J4-85,10.1016/j.scriptamat.2017.05.019,Co35Cr15Fe20Ni20Mo10,FCC,S,AC,,,,T,25.0,350,720,21.9,,,,,,,wrong processing ,85.0,10.1016/j.scriptamat.2017.05.019,,,208
65,J4-85,10.1016/j.scriptamat.2017.05.019,Co35Cr15Fe20Ni20Mo10,FCC + $\mu$,M,CR + A,,,,T,25.0,1311,1410,12.1,,,,,,,wrong processing ,85.0,10.1016/j.scriptamat.2017.05.019,,,208
66,J4-85,10.1016/j.scriptamat.2017.05.019,Co35Cr15Fe20Ni20Mo10,FCC + $\mu$,M,CR + A,,,,T,25.0,1212,1360,14.9,,,,,,,wrong processing ,85.0,10.1016/j.scriptamat.2017.05.019,,,208
67,J4-85,10.1016/j.scriptamat.2017.05.019,Co35Cr15Fe20Ni20Mo10,FCC + $\mu$,M,CR + A,,,,T,25.0,1028,1249,18.3,,,,,,,wrong processing ,85.0,10.1016/j.scriptamat.2017.05.019,,,208
68,J4-85,10.1016/j.scriptamat.2017.05.019,Co35Cr15Fe20Ni20Mo10,FCC + $\mu$,M,CR + A,,,,T,25.0,879,1194,25.4,,,,,,,wrong processing ,85.0,10.1016/j.scriptamat.2017.05.019,,,208
69,J4-85,10.1016/j.scriptamat.2017.05.019,Co35Cr15Fe20Ni20Mo10,FCC + $\mu$,M,CR + A,,,,T,25.0,799,1127,28.2,,,,,,,wrong processing ,85.0,10.1016/j.scriptamat.2017.05.019,,,208
70,J4-85,10.1016/j.scriptamat.2017.05.019,Co35Cr15Fe20Ni20Mo10,FCC,S,CR + A,,,,T,25.0,350,918,62.4,,,,,,,wrong processing ,85.0,10.1016/j.scriptamat.2017.05.019,,,208
71,J4-79,10.1016/j.actamat.2016.06.063,Co25Cr25Fe25Ni25,FCC,S,AC,,,,T,25.0,155,472.4,58.9,,,,,,,,79.0,10.1016/j.actamat.2016.06.063,,,206
72,J4-79,10.1016/j.actamat.2016.06.063,Co24Cr24Fe24Ni24Mo2,,,AC,,,,T,25.0,198.8,479,51.1,,,,,,,,79.0,10.1016/j.actamat.2016.06.063,,,206
73,J4-79,10.1016/j.actamat.2016.06.063,Co24Cr24Fe24Ni24Mo5,,,AC,,,,T,25.0,254.7,589.6,55.1,,,,,,,,79.0,10.1016/j.actamat.2016.06.063,,,206
74,J4-79,10.1016/j.actamat.2016.06.063,Co23Cr23Fe23Ni23Mo7,FCC + $\sigma$,M,AC,,,,T,25.0,305.3,709.7,49.3,,,,,,,,79.0,10.1016/j.actamat.2016.06.063,,,206
75,J4-79,10.1016/j.actamat.2016.06.063,Co23Cr23Fe23Ni23Mo7,FCC + $\mu$ + $\sigma$,M,CR + A,1 - 5,,,T,25.0,815.5,1186.5,18.9,,,,,,,not the actual grain size. precipitate sizes currently recorded,79.0,10.1016/j.actamat.2016.06.063,,,206
76,J4-79,10.1016/j.actamat.2016.06.063,Co23Cr23Fe23Ni23Mo7,FCC + $\mu$ + $\sigma$,M,CR + A,0.2 - 6,,,T,25.0,646.7,1042,32.5,,,,,,,,79.0,10.1016/j.actamat.2016.06.063,,,206
77,J4-79,10.1016/j.actamat.2016.06.063,Co23Cr23Fe23Ni23Mo7,FCC + $\mu$ + $\sigma$,M,CR + A,0.2 - 3,,,T,25.0,683.7,1066.6,30.4,,,,,,,,79.0,10.1016/j.actamat.2016.06.063,,,206
78,J4-38,10.1117/1.JEI.26.4.043022,CoCrFeMnNi,FCC,,HF+A,13,,,T,25.0,243,558,50,,,,,,,processing isn't technically as cast because it's forged. so hr ,38.0,10.1117/1.JEI.26.4.043022,,"Further going back to the original paper, i disagree with their noted elongation. Plus the paper switched two of these (https://www.tandfonline.com/doi/full/10.1080/02670836.2017.1342367?scroll=top&needAccess=true) (ef = 58)",186
79,J4-38,10.1117/1.JEI.26.4.043022,(CoCrFeMnNi)98C2,FCC + Carbide,,HF+A,8,,,T,25.0,446,723,15,,,,,,,processing isn't technically as cast because it's forged. so hr ,38.0,10.1117/1.JEI.26.4.043022,,"Further going back to the original paper, i disagree with their noted elongation Plus the paper switched two of these (https://www.tandfonline.com/doi/full/10.1080/02670836.2017.1342367?scroll=top&needAccess=true) (ef = 15.5)",186
80,J4-38,10.1117/1.JEI.26.4.043022,CoCrFeMnNi,FCC,,HF+CR+A,7,,,T,25.0,249,621,41,,,,,,,,38.0,10.1117/1.JEI.26.4.043022,,ef = 47,186
81,J4-38,10.1117/1.JEI.26.4.043022,(CoCrFeMnNi)98C2,FCC + Carbide,,HF+CR+A,4,,,T,25.0,581,857,28,,,,,,,fixed grain size ,38.0,10.1117/1.JEI.26.4.043022,,ef = 35,186
82,J4-78,10.1016/j.actamat.2015.08.076,CoCrFeNi,FCC,S,A,,,,T,25.0,190,453,70,,,,,,,,78.0,10.1016/j.actamat.2015.08.076,,,205
83,J4-78,10.1016/j.actamat.2015.08.076,Al4Co24Cr24Fe24Ni24Ti2,FCC,S,A,289.7,,,T,25.0,210,503,70,,,,,,,added grain size ,78.0,10.1016/j.actamat.2015.08.076,,,205
84,J4-78,10.1016/j.actamat.2015.08.076,Al4Co24Cr24Fe24Ni24Ti2,FCC + L12 + L21,M,CR + A,15.7,,,T,25.0,645,1094,39,,,,,,,added grain size ,78.0,10.1016/j.actamat.2015.08.076,,,205
85,J4-78,10.1016/j.actamat.2015.08.076,Al4Co24Cr24Fe24Ni24Ti2,FCC + L12 + L21,M,CR + A,2.8,,,T,25.0,1005,1273,17,,,,,,,added grain size ,78.0,10.1016/j.actamat.2015.08.076,,,205
86,J4-88,10.1016/j.ultramic.2015.06.009,Al8Co17Cr17Cu8Fe17Ni33,FCC + L12,M,AC,,,280 $\pm$ 18,T,25.0,357,459,9,,,,,,,,88.0,10.1016/j.ultramic.2015.06.009,,,210
87,J4-88,10.1016/j.ultramic.2015.06.009,Al8Co17Cr17Cu8Fe17Ni33,,,A,,,168 $\pm$ 5,,,,,,,,,,,,,88.0,10.1016/j.ultramic.2015.06.009,,,210
88,J4-88,10.1016/j.ultramic.2015.06.009,Al8Co17Cr17Cu8Fe17Ni33,,,A,,,328 $\pm$ 7,,,,,,,,,,,,,88.0,10.1016/j.ultramic.2015.06.009,,,210
89,J4,10.1016/j.matchar.2018.06.036,Al8Co17Cr17Cu8Fe17Ni33,,,A,,,206 $\pm$ 5,,,,,,,,,,,,,,This Article,,,176
90,J4-88,10.1016/j.ultramic.2015.06.009,Al8Co17Cr14Cu8Fe17Ni35W0.1Mo0.1Ti1,,,AC,,,231 $\pm$ 12,,,,,,,,,,,,,88.0,10.1016/j.ultramic.2015.06.009,,,210
91,J4-88,10.1016/j.ultramic.2015.06.009,Al8Co17Cr14Cu8Fe17Ni35W0.1Mo0.1Ti1,,,A,,,178 $\pm$ 7,,,,,,,,,,,,,88.0,10.1016/j.ultramic.2015.06.009,,,210
92,J4-88,10.1016/j.ultramic.2015.06.009,Al8Co17Cr14Cu8Fe17Ni35W0.1Mo0.1Ti1,,,A,,,343 $\pm$ 6,,,,,,,,,,,,,88.0,10.1016/j.ultramic.2015.06.009,,,210
93,J4,10.1016/j.matchar.2018.06.036,Al8Co17Cr14Cu8Fe17Ni35W0.1Mo0.1Ti1,,,A,,,171 $\pm$ 7,,,,,,,,,,,,,,This Article,,,176
94,J4-30,10.1007/s11837-015-1484-7,Al10Co25Cr8Fe15Ni36Ti6,,,AC,,,343 $\pm$ 22,,,,,,,,,,,,,30.0,10.1007/s11837-015-1484-7,,,184
95,J4-30,10.1007/s11837-015-1484-7,Al10Co25Cr8Fe15Ni36Ti6,,,A,,,341 $\pm$ 12,,,,,,,,,,,,,30.0,10.1007/s11837-015-1484-7,,,184
96,J4-30,10.1007/s11837-015-1484-7,Al10Co25Cr8Fe15Ni36Ti6,FCC + L12 + C1,M,A,,,345 $\pm$ 14,T,25.0,568,786,12,,,,,,,,30.0,10.1007/s11837-015-1484-7,,,184
97,J4-30,10.1007/s11837-015-1484-7,Al10Co25Cr8Fe15Ni36Ti6,FCC + L12 + C1,M,A,,,345 $\pm$ 18,T,25.0,596,1039,20,,,,,,,,30.0,10.1007/s11837-015-1484-7,,,184
98,J4-88,10.1016/j.ultramic.2015.06.009,Al8Co17Cr17Cu8Fe17Ni33,FCC + L12,M,A,,,,T,25.0,215,489,39,,,,,,,,88.0,10.1016/j.ultramic.2015.06.009,,,210
99,J4-30,10.1007/s11837-015-1484-7,Al10Co25Cr8Fe15Ni36Ti6,FCC + L12 + C1,M,A,,,345 $\pm$ 14,T,700.0,487,702,18,,,,,,,,30.0,10.1007/s11837-015-1484-7,,,184
100,J4-30,10.1007/s11837-015-1484-7,Al10Co25Cr8Fe15Ni36Ti6,FCC + L12 + C1,M,A,,,345 $\pm$ 18,T,700.0,486,624,11,,,,,,,,30.0,10.1007/s11837-015-1484-7,,,184
101,J4-75,10.1016/j.msea.2016.11.019,Al23Cr26Fe26Ni26,BCC + B2,M,AC,,,,C,25.0,770,,37.1,,,,,,,,75.0,10.1016/j.msea.2016.11.019,,,202
102,J4-75,10.1016/j.msea.2016.11.019,AlCrFeNi,BCC + B2,M,AC,,,,C,25.0,843.2,,34.6,,,,,,,,75.0,10.1016/j.msea.2016.11.019,,,202
103,J4-75,10.1016/j.msea.2016.11.019,Al27Cr24Fe24Ni24,BCC + B2,M,AC,,,,C,25.0,1044,,27.1,,,,,,,,75.0,10.1016/j.msea.2016.11.019,,,202
104,J4-75,10.1016/j.msea.2016.11.019,Al29Cr24Fe24Ni24,BCC + B2,M,AC,,,,C,25.0,906.8,,31.4,,,,,,,,75.0,10.1016/j.msea.2016.11.019,,,202
105,J4-75,10.1016/j.msea.2016.11.019,Al30Cr23Fe23Ni23,BCC + B2,M,AC,,,,C,25.0,1122.8,,24.7,,,,,,,,75.0,10.1016/j.msea.2016.11.019,,,202
106,J4-73,10.1016/j.matlet.2016.01.096,Al17Cr17Fe34Ni34,BCC + B2,M,AC,,,,C,25.0,,,17,,,,,,,,73.0,10.1016/j.matlet.2016.01.096,,,200
107,J4-109,10.1016/j.matdes.2013.12.048,AlCoCrFeNi,BCC + B2,M,AC,,,,C,25.0,,,22.7,,,,,,,,109.0,10.1016/j.matdes.2013.12.048,,,177
108,J4-53,10.1016/j.jmst.2014.09.011,Al18Cr18Fe17Ni33Ti9,BCC + B2 + L12,M,AC,,,,C,25.0,,,16.3,,,,,,,,53.0,10.1016/j.jmst.2014.09.011,,,191
109,J4-53,10.1016/j.jmst.2014.09.011,Al18Cr18Fe17Ni33Ti9,BCC + B2 + L12,M,A,,,,C,25.0,,,19.8,,,,,,,,53.0,10.1016/j.jmst.2014.09.011,,,191
110,J4-50,10.1007/s11665-015-1767-8,Cr22Fe22Ni22V11W22,FCC + BCC + $\sigma$,M,AC,,,,C,25.0,,,7.3,,,,,,,,50.0,10.1007/s11665-015-1767-8,,,190
111,J4-110,10.1016/j.msea.2015.09.089,Al17Cr17Cu17Fe17Ni33,FCC + BCC + B2,M,AC,,,,C,25.0,,,30,,,,,,,,110.0,10.1016/j.msea.2015.09.089,,,178
112,J4-96,10.1134/S0031918X17060084,CoCrFeMnNi,FCC,S,A,,,,C,25.0,230,,75,,,,,,,,96.0,10.1134/S0031918X17060084,,,211
113,J4-96,10.1134/S0031918X17060084,Co19Cr19Fe19Mn19Ni19V5,FCC + $\sigma$,M,A,,,,C,25.0,200,,75,,,,,,,,96.0,10.1134/S0031918X17060084,,,211
114,J4-96,10.1134/S0031918X17060084,Co18Cr18Fe18Mn18Ni18V9,FCC + $\sigma$,M,A,,,,C,25.0,620,,75,,,,,,,,96.0,10.1134/S0031918X17060084,,,211
115,J4-96,10.1134/S0031918X17060084,Co17Cr17Fe17Mn17Ni17V13,FCC + $\sigma$,M,A,,,,C,25.0,780,,8,,,,,,,,96.0,10.1134/S0031918X17060084,,,211
116,J4-96,10.1134/S0031918X17060084,CoCrFeMnNiV,FCC + $\sigma$,M,A,,,,C,25.0,1700,,1,,,,,,,,96.0,10.1134/S0031918X17060084,,,211
117,J4-111,10.1016/j.msea.2015.02.072,Al7Co23Cr23Fe23Ni23,FCC,S,AC,,,,C,25.0,,,25,,,,,,,,111.0,10.1016/j.msea.2015.02.072,,,179
118,J4-112,10.1016/j.jallcom.2013.12.210,CoCrFeNi,FCC,S,AC,,,,C,25.0,,,83,,,,,,,,112.0,10.1016/j.jallcom.2013.12.210,,,180