,REFERENCE: tag,REFERENCE: doi,FORMULA,PROPERTY: Type of phases,PROPERTY: Single/Multiphase,PROPERTY: synthesis method,PROPERTY: grain size ($\mu$m),PROPERTY: ROM Density (g/cm$^3$),PROPERTY: HV,PROPERTY: Type of test,PROPERTY: Test temperature ($^\circ$C),PROPERTY: YS (MPa),PROPERTY: UTS (MPa),PROPERTY: Elongation (%),PROPERTY: Elongation plastic (%),PROPERTY: ROM Young modulus (GPa),PROPERTY: Exp. Young modulus (GPa),PROPERTY: O content (wppm),PROPERTY: N content (wppm),PROPERTY: C content (wppm),REFERENCE: comment,Internal Reference #,Original DOI,PROPERTY: Exp. Density (g/cm$^3$),Unnamed: 22,IDENTIFIER: Reference ID
359,74,10.1016/j.matdes.2015.06.072,Mo1.7NbTiVZr,BCC,S,A,,7.5,,C,25.0,1645.0,,,15.0,,,,,,,,,,,58
360,74,10.1016/j.matdes.2015.06.072,Mo2NbTiVZr,BCC,S,A,,7.6,,C,25.0,1765.0,,,12.0,,,,,,,,,,,58
361,74,10.1016/j.matdes.2015.06.072,MoNbTiVZr,BCC,S,A,,7.1,,C,25.0,1779.0,,,32.0,,,,,,,,,,,58
362,74,10.1016/j.matdes.2015.06.072,NbTiV0.3MoZr,BCC,S,A,,7.3,,C,25.0,1455.0,,,25.0,,,,,,,,,,,58
363,74,10.1016/j.matdes.2015.06.072,NbTiV0.3Mo0.1Zr,BCC,S,A,,6.6,,C,25.0,932.0,,,45.0,,,,,,,,,,,58
364,74,10.1016/j.matdes.2015.06.072,NbTiV0.3Mo0.3Zr,BCC,S,A,,6.8,,C,25.0,1312.0,,,50.0,,,,,,,,,,,58
365,74,10.1016/j.matdes.2015.06.072,NbTiV0.3Mo0.5Zr,BCC,S,A,,6.9,,C,25.0,1301.0,,,43.0,,,,,,,,,,,58
366,74,10.1016/j.matdes.2015.06.072,NbTiV0.3Mo0.7Zr,BCC,S,A,,7.1,,C,25.0,1436.0,,,27.0,,,,,,,,,,,58
367,74,10.1016/j.matdes.2015.06.072,NbTiV0.3Mo1.3Zr,BCC,S,A,,7.4,,C,25.0,1603.0,,,20.0,,,,,,,,,,,58
368,74,10.1016/j.matdes.2015.06.072,NbTiV0.3Mo1.5Zr,BCC,S,A,,7.5,,C,25.0,1576.0,,,8.0,,,,,,,,,,,58
369,74,10.1016/j.matdes.2015.06.072,NbTiV0.3Zr,BCC,S,A,,6.5,,C,25.0,866.0,,,45.0,,,,,,,,,,,58
370,74,10.1016/j.matdes.2015.06.072,NbTiVZr,BCC,S,A,,6.5,,C,25.0,1104.0,,,50.0,,,,,,,,,,,58
371,75,10.1007/s11837-012-0366-5,MoNbTiV0.25Zr,BCC,S,AC,,7.3,,C,25.0,1776.0,3893.0,30,,153.0,,,,,bridgeman solidfication,,,,,59
372,75,10.1007/s11837-012-0366-5,MoNbTiV0.50Zr,BCC,S,AC,,7.2,,C,25.0,1647.0,3307.0,28,,152.0,,,,,bridgeman solidfication,,,,,59
373,75,10.1007/s11837-012-0366-5,MoNbTiV0.75Zr,BCC,S,AC,,7.2,,C,25.0,1708.0,3929.0,29,,150.0,,,,,bridgeman solidfication,,,,,59
374,75,10.1007/s11837-012-0366-5,MoNbTiV1.0Zr,BCC,S,AC,,7.1,,C,25.0,1786.0,3828.0,26,,149.0,,,,,bridgeman solidfication,,,,,59
375,75,10.1007/s11837-012-0366-5,MoNbTiV1.5Zr,BCC,S,AC,,7.1,,C,25.0,1735.0,3300.0,20,,147.0,,,,,bridgeman solidfication,,,,,59
376,75,10.1007/s11837-012-0366-5,MoNbTiV2.0Zr,BCC,S,AC,,7.0,,C,25.0,1538.0,3176.0,23,,146.0,,,,,bridgeman solidfication,,,,,59
377,75,10.1007/s11837-012-0366-5,MoNbTiV3.0Zr,BCC,S,AC,,6.9,,C,25.0,1418.0,2508.0,24,,143.0,,,,,bridgeman solidfication,,,,,59
378,75,10.1007/s11837-012-0366-5,MoNbTiZr,BCC,S,AC,,7.3,,C,25.0,1592.0,3450.0,34,,155.0,,,,,bridgeman solidfication,,,,,59
379,77,10.1016/j.jallcom.2015.07.185,CoFeMo0.2NiV,FCC+Im,M,AC,,8.0,267.0,,25.0,,,,,,,,,,,,,,,60
380,77,10.1016/j.jallcom.2015.07.185,CoFeMo0.4NiV,FCC+Im,M,AC,,8.1,402.0,,25.0,,,,,,,,,,,,,,,60
381,77,10.1016/j.jallcom.2015.07.185,CoFeMo0.6NiV,FCC+Im,M,AC,,8.2,557.0,,25.0,,,,,,,,,,,,,,,60
382,77,10.1016/j.jallcom.2015.07.185,CoFeMo0.8NiV,FCC+Im,M,AC,,8.3,606.0,,25.0,,,,,,,,,,,,,,,60
383,77,10.1016/j.jallcom.2015.07.185,CoFeMoNi1.2V,FCC+Im,M,AC,,8.4,602.0,,25.0,,,,,,,,,,,,,,,60
384,77,10.1016/j.jallcom.2015.07.185,CoFeMoNi1.4V,FCC+Im,M,AC,,8.5,538.0,,25.0,,,,,,,,,,,,,,,60
385,77,10.1016/j.jallcom.2015.07.185,CoFeMoNi1.6V,FCC+Im,M,AC,,8.5,520.0,,25.0,,,,,,,,,,,,,,,60
386,77,10.1016/j.jallcom.2015.07.185,CoFeMoNi1.8V,FCC+Im,M,AC,,8.5,510.0,,25.0,,,,,,,,,,,,,,,60
387,77,10.1016/j.jallcom.2015.07.185,CoFeMoNi2V,FCC+Im,M,AC,,8.5,382.0,,25.0,,,,,,,,,,,,,,,60
388,77,10.1016/j.jallcom.2015.07.185,CoFeMoNiV,FCC+Im,M,AC,,8.4,625.0,,25.0,,,,,,,,,,,,,,,60
389,77,10.1016/j.jallcom.2015.07.185,CoFeNiV,FCC,S,AC,,7.8,238.0,,25.0,,,,,187.0,,,,,,,,,,60
390,78,10.1016/j.msea.2006.11.049,Al11.1(CoCrCuFeMnNiTiV)88.9,FCC+BCC,M,AC,,6.7,,C,25.0,1862.0,2431.0,< 1,,,164.0,,,,,,,,,61
391,78,10.1016/j.msea.2006.11.049,Al20(CoCrCuFeMnNiTiV)80,BCC,S,AC,,6.1,,C,25.0,1465.0,2016.0,2,,,190.0,,,,,,,,,61
392,78,10.1016/j.msea.2006.11.049,Al40(CoCrCuFeMnNiTiV)60,BCC+Al3Ti,M,AC,,5.1,,C,25.0,1461.0,1461.0,< 1,,,163.0,,,,,,,,,61
393,78,10.1016/j.msea.2006.11.049,CoCrCuFeMnNiTiV,FCC+BCC+omega,M,AC,,7.3,,C,25.0,1312.0,1312.0,< 1,,,74.0,,,,,,,,,61
394,79,10.1016/j.jallcom.2015.07.285,(CuMnNi)75Zn25,FCC,S,AC,,8.3,147.0,C,25.0,215.0,,>60,,169.0,,,,,,,,,,62
395,79,10.1016/j.jallcom.2015.07.285,(CuMnNi)80Zn20,FCC,S,AC,,8.3,109.0,C,25.0,140.0,,>65,,171.0,,,,,,,,,,62
396,79,10.1016/j.jallcom.2015.07.285,(CuMnNi)90Al10,FCC+Im,M,AC,,8.1,241.0,C,25.0,515.0,,40,,,,,,,,,,,,62
397,79,10.1016/j.jallcom.2015.07.285,(CuMnNi)90Sn10,FCC+heusler,M,AC,,8.3,318.0,C,25.0,630.0,,20,,,,,,,,,,,,62
398,79,10.1016/j.jallcom.2015.07.285,(CuMnNi)95Al5,FCC,S,AC,,8.3,166.0,C,25.0,330.0,,>45,,174.0,,,,,,,,,,62
399,79,10.1016/j.jallcom.2015.07.285,(CuMnNi)95Sn5,FCC+heusler,M,AC,,8.4,205.0,C,25.0,380.0,,>63,,,,,,,,,,,,62
400,80,10.1007/s11661-005-0218-9,Al0.5CoCrCuFeNi,FCC,S,AC,,7.9,,C,1000.0,150.0,,,,,,,,,,,,,,64
401,80,10.1007/s11661-005-0218-9,Al0.5CoCrCuFeNi,FCC,S,AC,,7.9,,C,25.0,388.0,,,,,,,,,,,,,,64
402,80,10.1007/s11661-005-0218-9,Al0.5CoCrCuFeNi,FCC,S,AC,,7.9,,C,300.0,411.0,,,,,,,,,,,,,,64
403,80,10.1007/s11661-005-0218-9,Al0.5CoCrCuFeNi,FCC,S,AC,,7.9,,C,500.0,421.0,,,,,,,,,,,,,,64
404,80,10.1007/s11661-005-0218-9,Al0.5CoCrCuFeNi,FCC,S,AC,,7.9,,C,700.0,426.0,,,,,,,,,,,,,,64
405,80,10.1007/s11661-005-0218-9,Al0.5CoCrCuFeNi,FCC,S,AC,,7.9,,C,900.0,230.0,,,,,,,,,,,,,,64
406,80,10.1007/s11661-005-0218-9,Al0.5CoCrCuFeNi,FCC,S,AC,,7.9,,C,1100.0,80.0,,,,,,,,,,,,,,64
407,80,10.1007/s11661-005-0218-9,Al2CoCrCuFeNi,BCC,S,AC,,6.7,,C,1000.0,116.0,,,,,,,,,,,,,,64
408,80,10.1007/s11661-005-0218-9,Al2CoCrCuFeNi,BCC,S,AC,,6.7,,C,1100.0,79.0,,,,,,,,,,,,,,64
409,80,10.1007/s11661-005-0218-9,Al2CoCrCuFeNi,BCC,S,AC,,6.7,,C,25.0,1620.0,,,,,,,,,,,,,,64
410,80,10.1007/s11661-005-0218-9,Al2CoCrCuFeNi,BCC,S,AC,,6.7,,C,600.0,805.0,,,,,,,,,,,,,,64
411,80,10.1007/s11661-005-0218-9,Al2CoCrCuFeNi,BCC,S,AC,,6.7,,C,500.0,1120.0,,,,,,,,,,,,,,64
412,80,10.1007/s11661-005-0218-9,Al2CoCrCuFeNi,BCC,S,AC,,6.7,,C,700.0,567.0,,,,,,,,,,,,,,64
413,80,10.1007/s11661-005-0218-9,Al2CoCrCuFeNi,BCC,S,AC,,6.7,,C,900.0,214.0,,,,,,,,,,,,,,64
414,80,10.1007/s11661-005-0218-9,Al2CoCrCuFeNi,BCC,S,AC,,6.7,,C,800.0,302.0,,,,,,,,,,,,,,64
415,80,10.1007/s11661-005-0218-9,AlCoCrCuFeNi,FCC+BCC,M,AC,,7.4,,C,1000.0,47.0,,,,,,,,,,,,,,64
416,80,10.1007/s11661-005-0218-9,AlCoCrCuFeNi,FCC+BCC,M,AC,,7.4,,C,25.0,948.0,,,,,,,,,,,,,,64
417,80,10.1007/s11661-005-0218-9,AlCoCrCuFeNi,FCC+BCC,M,AC,,7.4,,C,600.0,561.0,,,,,,,,,,,,,,64
418,80,10.1007/s11661-005-0218-9,AlCoCrCuFeNi,FCC+BCC,M,AC,,7.4,,C,700.0,307.0,,,,,,,,,,,,,,64
419,80,10.1007/s11661-005-0218-9,AlCoCrCuFeNi,FCC+BCC,M,AC,,7.4,,C,800.0,172.0,,,,,,,,,,,,,,64
420,80,10.1007/s11661-005-0218-9,AlCoCrCuFeNi,FCC+BCC,M,AC,,7.4,,C,900.0,98.0,,,,,,,,,,,,,,64
421,81,10.1016/j.jallcom.2015.11.050,AlCrMoNbTi,BCC,S,AC,,6.6,,C,25.0,,,,,,,92.0,,,,,,,,65
422,81,10.1016/j.jallcom.2015.11.050,AlCrMoNbTi,BCC,S,AC,,6.6,,C,400.0,1080.0,1100.0,2,,,,92.0,,,,,,,,65
423,81,10.1016/j.jallcom.2015.11.050,AlCrMoNbTi,BCC,S,AC,,6.6,,C,600.0,1060.0,1170.0,3,,,,92.0,,,,,,,,65
424,81,10.1016/j.jallcom.2015.11.050,AlCrMoNbTi,BCC,S,AC,,6.6,,C,800.0,860.0,1000.0,2,,,,92.0,,,,,,,,65
425,81,10.1016/j.jallcom.2015.11.050,AlCrMoNbTi,BCC,S,AC,,6.6,,C,1000.0,594.0,630.0,15,,,,92.0,,,,,,,,65
426,81,10.1016/j.jallcom.2015.11.050,AlCrMoNbTi,BCC,S,AC,,6.6,,C,1200.0,105.0,116.0,24,,,,92.0,,,,,,,,65
427,Couzinie_11,10.1007/s11661-017-4386-1,AlCrMoNbTi,BCC,S,A,,6.6,,C,600.0,930.0,,,,,,92.0,,,,,,,,67
428,Couzinie_11,10.1007/s11661-017-4386-1,AlCrMoNbTi,BCC,S,A,,6.6,,C,800.0,875.0,,,,,,,,,,,,,,67
429,Couzinie_11,10.1007/s11661-017-4386-1,AlCrMoNbTi,BCC,S,A,,6.6,,C,1000.0,550.0,,,,,,,,,,,,,,67
430,Couzinie_11,10.1007/s11661-017-4386-1,AlCrMoNbTi,BCC,S,A,,6.6,,C,1200.0,150.0,,,,,,,,,,,,,,67
431,Couzinie_11,10.1007/s11661-017-4386-1,AlCrMoTi,BCC,S,A,,6.0,,C,400.0,1070.0,,,,,,,,,,,,,,67
432,Couzinie_11,10.1007/s11661-017-4386-1,AlCrMoTi,BCC,S,A,,6.0,,C,600.0,1020.0,,,,,,,,,,,,,,67
433,Couzinie_11,10.1007/s11661-017-4386-1,AlCrMoTi,BCC,S,A,,6.0,,C,800.0,875.0,,,,,,,,,,,,,,67
434,Couzinie_11,10.1007/s11661-017-4386-1,AlCrMoTi,BCC,S,A,,6.0,,C,1000.0,375.0,,,,,,,,,,,,,,67
435,Couzinie_11,10.1007/s11661-017-4386-1,AlCrMoTi,BCC,S,A,,6.0,,C,1200.0,100.0,,,,,,,,,,,,,,67
436,Couzinie_11,10.1007/s11661-017-4386-1,AlMoNbTi,BCC,S,A,,6.5,,C,600.0,520.0,,,,,,,,,,,,,,67
437,Couzinie_11,10.1007/s11661-017-4386-1,AlMoNbTi,BCC,S,A,,6.5,,C,800.0,500.0,,,,,,,,,,,,,,67
438,Couzinie_11,10.1007/s11661-017-4386-1,AlMoNbTi,BCC,S,A,,6.5,,C,1000.0,540.0,,,,,,,,,,,,,,67
439,Couzinie_11,10.1007/s11661-017-4386-1,AlMoNbTi,BCC,S,A,,6.5,,C,1200.0,200.0,,,,,,,,,,,,,,67
440,Couzinie_14,10.1016/j.msea.2017.08.019,AlNbTiV,B2,S,A,,5.5,,C,600.0,780.0,1005.0,,,,,,,,,,,,,68
441,Couzinie_14,10.1016/j.msea.2017.08.019,AlNbTiV,B2,S,A,,5.5,,C,800.0,560.0,700.0,,,,,,,,,,,,,68
442,Couzinie_14,10.1016/j.msea.2017.08.019,AlNbTiV,B2,S,A,,5.5,,C,25.0,1000.0,1280.0,,,,,,,,,,,,,68
443,Couzinie_14,10.1016/j.msea.2017.08.019,AlNbTiVZr,B2+Al3Zr5+Laves,M,A,,5.7,,C,600.0,1155.0,1385.0,,,,,,,,,,,,,68
444,Couzinie_14,10.1016/j.msea.2017.08.019,AlNbTiVZr,B2+Al3Zr5+Laves,M,A,,5.7,,C,800.0,550.0,600.0,,,,,,,,,,,,,68
445,Couzinie_14,10.1016/j.msea.2017.08.019,AlNbTiVZr,B2+Al3Zr5+Laves,M,A,,5.7,,C,25.0,1500.0,1675.0,,,,,,,,,,,,,68
446,Couzinie_14,10.1016/j.msea.2017.08.019,AlNbTiVZr0.1,B2+Al3Zr5,M,A,,5.5,,C,600.0,975.0,1085.0,,,,,,,,,,,,,68
447,Couzinie_14,10.1016/j.msea.2017.08.019,AlNbTiVZr0.1,B2+Al3Zr5,M,A,,5.5,,C,800.0,865.0,920.0,,,,,,,,,,,,,68
448,Couzinie_14,10.1016/j.msea.2017.08.019,AlNbTiVZr0.1,B2+Al3Zr5,M,A,,5.5,,C,25.0,1290.0,1395.0,,,,,,,,,,,,,68
449,Couzinie_14,10.1016/j.msea.2017.08.019,AlNbTiVZr0.25,B2+Al3Zr5,M,A,,5.6,,C,600.0,1065.0,1260.0,,,,,,,,,,,,,68
450,Couzinie_14,10.1016/j.msea.2017.08.019,AlNbTiVZr0.25,B2+Al3Zr5,M,A,,5.6,,C,800.0,855.0,865.0,,,,,,,,,,,,,68
451,Couzinie_14,10.1016/j.msea.2017.08.019,AlNbTiVZr0.25,B2+Al3Zr5,M,A,,5.6,,C,25.0,1360.0,1480.0,,,,,,,,,,,,,68
452,Couzinie_14,10.1016/j.msea.2017.08.019,AlNbTiVZr0.5,B2+Al3Zr5+Laves,M,A,,5.6,,C,600.0,1135.0,1425.0,,,,,,,,,,,,,68
453,Couzinie_14,10.1016/j.msea.2017.08.019,AlNbTiVZr0.5,B2+Al3Zr5+Laves,M,A,,5.6,,C,800.0,675.0,740.0,,,,,,,,,,,,,68
454,Couzinie_14,10.1016/j.msea.2017.08.019,AlNbTiVZr0.5,B2+Al3Zr5+Laves,M,A,,5.6,,C,25.0,1485.0,,,,,,,,,,,,,,68
455,Couzinie_14,10.1016/j.msea.2017.08.019,AlNbTiVZr1.5,B2+Al3Zr5+Laves,M,A,,5.8,,C,600.0,1195.0,1195.0,,,,,,,,,,,,,68
456,Couzinie_14,10.1016/j.msea.2017.08.019,AlNbTiVZr1.5,B2+Al3Zr5+Laves,M,A,,5.8,,C,800.0,180.0,395.0,,,,,,,,,,,,,68
457,Couzinie_14,10.1016/j.msea.2017.08.019,AlNbTiVZr1.5,B2+Al3Zr5+Laves,M,A,,5.8,,C,25.0,1535.0,1550.0,,,,,,,,,,,,,68
458,Couzinie_16,10.1007/s11665-017-2799-z,CoCrMoNb,BCC+Laves,M,AC,,8.8,,C,25.0,,1419.6,,,,,,,,,,,,,69
459,Couzinie_16,10.1007/s11665-017-2799-z,CoCrMoNbTi,BCC+Laves,M,AC,,7.8,,C,25.0,,1096.8,,,,,,,,,,,,,69
460,Couzinie_16,10.1007/s11665-017-2799-z,CoCrMoNbTi0.2,BCC+Laves,M,AC,,8.5,,C,25.0,,1905.6,,,,,,,,,,,,,69
461,Couzinie_16,10.1007/s11665-017-2799-z,CoCrMoNbTi0.4,BCC,S,AC,,8.3,,C,25.0,,1771.3,,,220.1,,,,,,,,,,69
462,Couzinie_16,10.1007/s11665-017-2799-z,CoCrMoNbTi0.5,BCC+Laves,M,AC,,8.2,,C,25.0,,1609.2,,,,,,,,,,,,,69
463,Couzinie_17,10.1016/j.ijrmhm.2014.07.009,CrHfNbTiZr,BCC+Laves,M,A,,8.2,,C,25.0,1457.0,1908.0,,,,,,,,,,,,,70
464,Couzinie_17,10.1016/j.ijrmhm.2014.07.009,CrHfNbTiZr,BCC+Laves,M,A,,8.2,,C,25.0,1420.0,1885.0,4.2,,,,,,,,,,,,70
465,Couzinie_17,10.1016/j.ijrmhm.2014.07.009,CrHfNbTiZr,BCC+Laves,M,A,,8.2,,C,25.0,1328.0,1884.0,,,,,,,,,,,,,70
466,Couzinie_17,10.1016/j.ijrmhm.2014.07.009,CrHfNbTiZr,BCC+Laves,M,A,,8.2,,C,25.0,1322.0,1726.0,,,,,,,,,,,,,70
467,Couzinie_17,10.1016/j.ijrmhm.2014.07.009,CrHfNbTiZr,BCC+Laves,M,AC,,8.2,,C,25.0,1375.0,2130.0,3,,,,,,,,,,,,70
468,Couzinie_17,10.1016/j.ijrmhm.2014.07.009,HfNbTiVZr,BCC+Laves,M,A,,8.0,,C,25.0,1157.0,1468.0,,,,,,,,,,,,,70
469,Couzinie_17,10.1016/j.ijrmhm.2014.07.009,HfNbTiVZr,BCC,S,A,,8.0,,C,25.0,1253.0,1393.0,,,99.0,,,,,,,,,,70
470,Couzinie_17,10.1016/j.ijrmhm.2014.07.009,HfNbTiVZr,BCC,S,A,,8.0,,C,25.0,1140.0,1463.0,,,99.0,,,,,,,,,,70
471,Couzinie_17,10.1016/j.ijrmhm.2014.07.009,HfNbTiVZr,BCC,S,A,,8.0,,C,25.0,1120.0,1376.0,30,,99.0,,,,,,,,,,70
472,Couzinie_17,10.1016/j.ijrmhm.2014.07.009,HfNbTiVZr,BCC+Laves,M,AC,,8.0,,C,25.0,1170.0,1463.0,29.6,,,,,,,,,,,,70
473,Couzinie_20,10.1016/j.matchemphys.2017.06.054,CrTaTi0.17VW,BCC+Laves,M,SPS,,12.5,715.0,C,25.0,2034.0,,1-2,,,,,,,"Jasper: Added HV values from Fig 5, corrected alloy formula to reflect what is stated in the article",,,,,71
474,Couzinie_20,10.1016/j.matchemphys.2017.06.054,CrTaTi0.17VW,BCC+Laves,M,SPS,,12.5,,C,1200.0,750.0,,1-2,,,,,,,,,,,,71
475,Couzinie_20,10.1016/j.matchemphys.2017.06.054,CrTaTi0.3VW,BCC+Laves,M,SPS,,12.2,780.0,C,25.0,2050.0,,1-2,,,,,,,,,,,,71
476,Couzinie_20,10.1016/j.matchemphys.2017.06.054,CrTaTi0.3VW,BCC+Laves,M,SPS,,12.2,,C,1200.0,586.0,,1-2,,,,,,,,,,,,71
477,Couzinie_20,10.1016/j.matchemphys.2017.06.054,CrTaVW,BCC+Laves,M,SPS,,12.9,715.0,C,25.0,2327.0,,1-2,,,,,,,,,,,,71
478,Couzinie_20,10.1016/j.matchemphys.2017.06.054,CrTaVW,BCC+Laves,M,SPS,,12.9,,C,1200.0,979.0,,1-2,,,,,,,,,,,,71
479,Couzinie_21,10.1080/14786435.2015.1028506,Hf0.4Nb1.54Ta1.54Ti0.89Zr0.64,BCC,S,AC,,10.4,,C,60.0,795.0,,,,125.0,,,,,,,,,,72
480,Couzinie_21,10.1080/14786435.2015.1028506,Hf0.4Nb1.54Ta1.54Ti0.89Zr0.64,BCC,S,AC,,10.4,,C,100.0,765.0,,,,,,,,,,,,,,72
481,Couzinie_21,10.1080/14786435.2015.1028506,Hf0.4Nb1.54Ta1.54Ti0.89Zr0.64,BCC,S,AC,,10.4,,C,200.0,650.0,,,,,,,,,,,,,,72
482,Couzinie_21,10.1080/14786435.2015.1028506,Hf0.4Nb1.54Ta1.54Ti0.89Zr0.64,BCC,S,AC,,10.4,,C,300.0,590.0,,,,,,,,,,,,,,72
483,Couzinie_21,10.1080/14786435.2015.1028506,Hf0.4Nb1.54Ta1.54Ti0.89Zr0.64,BCC,S,AC,,10.4,,C,25.0,845.0,,,,,,,,,,,,,,72
484,Couzinie_22,10.1016/j.jallcom.2015.11.091,Hf0.5Mo0.5NbSi0.1TiZr,BCC+laves,M,AC,,7.7,442.0,C,25.0,1350.0,2150.0,,28.0,,,,,,,,,,,73
485,Couzinie_22,10.1016/j.jallcom.2015.11.091,Hf0.5Mo0.5NbSi0.3TiZr,BCC+laves,M,AC,,7.5,494.0,C,25.0,1370.0,1950.0,,23.0,,,,,,,,,,,73
486,Couzinie_22,10.1016/j.jallcom.2015.11.091,Hf0.5Mo0.5NbSi0.5TiZr,BCC+laves,M,AC,,7.2,524.0,C,25.0,1600.0,1900.0,,23.0,,,,,,,,,,,73
487,Couzinie_22,10.1016/j.jallcom.2015.11.091,Hf0.5Mo0.5NbSi0.7TiZr,BCC+laves,M,AC,,7.0,580.0,C,25.0,1550.0,1900.0,,12.0,,,,,,,,,,,73
488,Couzinie_22,10.1016/j.jallcom.2015.11.091,Hf0.5Mo0.5NbSi0.9TiZr,BCC+laves,M,AC,,6.8,640.0,C,25.0,1650.0,2000.0,,9.0,,,,,,,,,,,73
489,Couzinie_22,10.1016/j.jallcom.2015.11.091,Hf0.5Mo0.5NbTiZr,BCC+laves,S,AC,,7.9,400.0,C,25.0,1150.0,1500.0,,25.0,123.1,,,,,,,,,,73
490,Couzinie_24,10.1016/j.msea.2017.10.073,Hf0.75NbTa0.5Ti1.5Zr1.25,BCC,S,CR,,8.4,,C,-268.8,2250.0,,,,103.1,,,,,,,,,,74
491,Couzinie_24,10.1016/j.msea.2017.10.073,Hf0.75NbTa0.5Ti1.5Zr1.25,BCC,S,CR,,8.4,,C,-268.8,2210.0,,,,103.1,,,,,,,,,,74
492,Couzinie_24,10.1016/j.msea.2017.10.073,Hf0.75NbTa0.5Ti1.5Zr1.25,BCC,S,CR,,8.4,,C,-196.0,1880.0,,,,,,,,,,,,,,74
493,Couzinie_24,10.1016/j.msea.2017.10.073,Hf0.75NbTa0.5Ti1.5Zr1.25,BCC,S,CR,,8.4,,C,-196.0,1750.0,,,,,,,,,,,,,,74
494,Couzinie_24,10.1016/j.msea.2017.10.073,Hf0.75NbTa0.5Ti1.5Zr1.25,BCC,S,CR,,8.4,,C,-153.0,1640.0,,,,,,,,,,,,,,74
495,Couzinie_24,10.1016/j.msea.2017.10.073,Hf0.75NbTa0.5Ti1.5Zr1.25,BCC,S,CR,,8.4,,C,-153.0,1550.0,,,,,,,,,,,,,,74
496,Couzinie_24,10.1016/j.msea.2017.10.073,Hf0.75NbTa0.5Ti1.5Zr1.25,BCC,S,CR,,8.4,,C,-103.0,1380.0,,,,,,,,,,,,,,74
497,Couzinie_24,10.1016/j.msea.2017.10.073,Hf0.75NbTa0.5Ti1.5Zr1.25,BCC,S,CR,,8.4,,C,-103.0,1370.0,,,,,,,,,,,,,,74
498,Couzinie_24,10.1016/j.msea.2017.10.073,Hf0.75NbTa0.5Ti1.5Zr1.25,BCC,S,CR,,8.4,,C,-43.0,1200.0,,,,,,,,,,,,,,74
499,Couzinie_24,10.1016/j.msea.2017.10.073,Hf0.75NbTa0.5Ti1.5Zr1.25,BCC,S,CR,,8.4,,C,-43.0,1180.0,,,,,,,,,,,,,,74
500,Couzinie_24,10.1016/j.msea.2017.10.073,Hf0.75NbTa0.5Ti1.5Zr1.25,BCC,S,CR,,8.4,,C,72.0,1040.0,,,,,,,,,,,,,,74
501,Couzinie_24,10.1016/j.msea.2017.10.073,Hf0.75NbTa0.5Ti1.5Zr1.25,BCC,S,CR,,8.4,,C,72.0,1020.0,,,,,,,,,,,,,,74
502,Couzinie_24,10.1016/j.msea.2017.10.073,Hf0.75NbTa0.5Ti1.5Zr1.25,BCC,S,CR,,8.4,,C,25.0,1150.0,,,,,,,,,,,,,,74
503,Couzinie_24,10.1016/j.msea.2017.10.073,Hf0.75NbTa0.5Ti1.5Zr1.25,BCC,S,CR,,8.4,,C,25.0,1100.0,,,,,,,,,,,,,,74
504,Couzinie_24,10.1016/j.msea.2017.10.073,Hf0.75NbTa0.5Ti1.5Zr1.25,BCC,S,CR+A,,8.4,,C,-268.8,2390.0,,,,103.1,,,,,,,,,,74
505,Couzinie_24,10.1016/j.msea.2017.10.073,Hf0.75NbTa0.5Ti1.5Zr1.25,BCC,S,CR+A,,8.4,,C,-196.0,1920.0,,,,,,,,,,,,,,74
506,Couzinie_24,10.1016/j.msea.2017.10.073,Hf0.75NbTa0.5Ti1.5Zr1.25,BCC,S,CR+A,,8.4,,C,-153.0,1370.0,,,,,,,,,,,,,,74
507,Couzinie_24,10.1016/j.msea.2017.10.073,Hf0.75NbTa0.5Ti1.5Zr1.25,BCC,S,CR+A,,8.4,,C,-103.0,1250.0,,,,,,,,,,,,,,74
508,Couzinie_24,10.1016/j.msea.2017.10.073,Hf0.75NbTa0.5Ti1.5Zr1.25,BCC,S,CR+A,,8.4,,C,-43.0,1020.0,,,,,,,,,,,,,,74
509,Couzinie_24,10.1016/j.msea.2017.10.073,Hf0.75NbTa0.5Ti1.5Zr1.25,BCC,S,CR+A,,8.4,,C,72.0,640.0,,,,,,,,,,,,,,74
510,Couzinie_24,10.1016/j.msea.2017.10.073,Hf0.75NbTa0.5Ti1.5Zr1.25,BCC,S,CR+A,,8.4,,C,25.0,890.0,,,,,,,,,,,,,,74
511,Couzinie_26,10.1016/j.jallcom.2016.10.014,HfMo0.5NbSi0.3TiV0.5,BCC+M5Si3,M,AC,,8.5,,C,1000.0,398.0,430.0,,,,,,,,,,,,,75
512,Couzinie_26,10.1016/j.jallcom.2016.10.014,HfMo0.5NbSi0.3TiV0.5,BCC+M5Si3,M,AC,,8.5,,C,25.0,1617.0,2016.0,,,,,,,,,,,,,75
513,Couzinie_26,10.1016/j.jallcom.2016.10.014,HfMo0.5NbSi0.3TiV0.5,BCC+M5Si3,M,AC,,8.5,,C,1200.0,166.0,187.0,,,,,,,,,,,,,75
514,Couzinie_26,10.1016/j.jallcom.2016.10.014,HfMo0.5NbSi0.5TiV0.5,BCC+M5Si3,M,AC,,8.2,,C,1000.0,614.0,696.0,,,,,,,,,,,,,75
515,Couzinie_26,10.1016/j.jallcom.2016.10.014,HfMo0.5NbSi0.5TiV0.5,BCC+M5Si3,M,AC,,8.2,,C,25.0,1787.0,2052.0,,,,,,,,,,,,,75
516,Couzinie_26,10.1016/j.jallcom.2016.10.014,HfMo0.5NbSi0.5TiV0.5,BCC+M5Si3,M,AC,,8.2,,C,1200.0,188.0,219.0,,,,,,,,,,,,,75
517,Couzinie_26,10.1016/j.jallcom.2016.10.014,HfMo0.5NbSi0.7TiV0.5,BCC+M5Si3,M,AC,,7.9,,C,1000.0,673.0,741.0,,,,,,,,,,,,,75
518,Couzinie_26,10.1016/j.jallcom.2016.10.014,HfMo0.5NbSi0.7TiV0.5,BCC+M5Si3,M,AC,,7.9,,C,25.0,2134.0,2242.0,,,,,,,,,,,,,75
519,Couzinie_26,10.1016/j.jallcom.2016.10.014,HfMo0.5NbSi0.7TiV0.5,BCC+M5Si3,M,AC,,7.9,,C,1200.0,235.0,268.0,,,,,,,,,,,,,75
520,Couzinie_26,10.1016/j.jallcom.2016.10.014,HfMo0.5NbTiV0.5,BCC,S,AC,,9.0,,C,1000.0,368.0,394.0,,,131.9,,,,,,,,,,75
521,Couzinie_26,10.1016/j.jallcom.2016.10.014,HfMo0.5NbTiV0.5,BCC,S,AC,,9.0,,C,1200.0,60.0,,,,,,,,,,,,,,75
522,Couzinie_26,10.1016/j.jallcom.2016.10.014,HfMo0.5NbTiV0.5,BCC,S,AC,,9.0,,C,25.0,1260.0,,,,,,,,,,,,,,75
523,Couzinie_29,10.1080/21663831.2016.1221861,HfNb0.18Ta0.18Ti1.27Zr,BCC,S,CR+A,,8.5,,T,25.0,540.0,995.0,,,95.2,,,,,,,,,,76
524,Couzinie_3,10.1016/j.matdes.2017.11.033,Al0.25NbTaTiZr,BCC+B2,M,HIP+A,,8.6,,C,1000.0,366.0,408.0,,,,,,,,,,,,,77
525,Couzinie_3,10.1016/j.matdes.2017.11.033,Al0.25NbTaTiZr,BCC+B2,M,HIP+A,,8.6,,C,25.0,1745.0,1830.0,,,,,,,,,,,,,77
526,Couzinie_3,10.1016/j.matdes.2017.11.033,Al0.5Mo0.5NbTa0.5TiZr,BCC+B2,M,HIP+A,,7.6,,C,1000.0,579.0,646.0,,,,,,,,,,,,,77
527,Couzinie_3,10.1016/j.matdes.2017.11.033,Al0.5Mo0.5NbTa0.5TiZr,BCC+B2,M,HIP+A,,7.6,,C,25.0,2350.0,2460.0,,,,,,,,,,,,,77
528,Couzinie_3,10.1016/j.matdes.2017.11.033,AlMo0.5NbTa0.5TiZr,BCC+B2,M,HIP+A,,7.1,,C,25.0,2197.0,2370.0,,,,,,,,,,,,,77
529,Couzinie_3,10.1016/j.matdes.2017.11.033,AlMo0.5NbTa0.5TiZr0.5,B2,S,HIP+A,,7.2,,C,1000.0,935.0,1019.0,,,,,,,,,,,,,77
530,Couzinie_3,10.1016/j.matdes.2017.11.033,AlMo0.5NbTa0.5TiZr0.5,B2,S,HIP+A,,7.2,,C,25.0,,1320.0,,,,,,,,,,,,,77
531,Couzinie_3,10.1016/j.matdes.2017.11.033,AlNbTa0.5TiZr0.5,B2,S,HIP+A,,6.9,,C,1000.0,535.0,542.0,,,,,,,,,,,,,77
532,Couzinie_3,10.1016/j.matdes.2017.11.033,AlNbTa0.5TiZr0.5,B2,S,HIP+A,,6.9,,C,25.0,1352.0,1357.0,,,,,,,,,,,,,77
533,Couzinie_31,10.4028/www.scientific.net/MSF.849.76,HfNbSi0.5TiVZr,BCC+Laves+M5Si3,M,A,,7.5,,C,400.0,1273.0,1335.0,14.5,,,,,,,,,,,,78