,REFERENCE: tag,REFERENCE: doi,FORMULA,PROPERTY: Type of phases,PROPERTY: Single/Multiphase,PROPERTY: synthesis method,PROPERTY: grain size ($\mu$m),PROPERTY: ROM Density (g/cm$^3$),PROPERTY: HV,PROPERTY: Type of test,PROPERTY: Test temperature ($^\circ$C),PROPERTY: YS (MPa),PROPERTY: UTS (MPa),PROPERTY: Elongation (%),PROPERTY: Elongation plastic (%),PROPERTY: ROM Young modulus (GPa),PROPERTY: Exp. Young modulus (GPa),PROPERTY: O content (wppm),PROPERTY: N content (wppm),PROPERTY: C content (wppm),REFERENCE: comment,Internal Reference #,Original DOI,PROPERTY: Exp. Density (g/cm$^3$),Unnamed: 22,IDENTIFIER: Reference ID
283,56,10.1016/j.matlet.2014.11.162,AlNbTiV,BCC,S,A,300-400,5.5,448,C,25.0,1020.0,1318.0,,5.0,105.0,,,,,plastic elongation ,,,,,43
287,58,10.1016/j.msea.2011.09.033,CrMo0.5NbTa0.5TiZr,BCC+BCC+Laves (C15),M,HIP+A,,8.0,540,C,25.0,1595.0,2046.0,5,,,,,,,total elongation ,,,,,44
291,59,10.1016/j.msea.2012.12.018,CrNbTiVZr,BCC+laves,M,HIP+A,,6.6,482,C,25.0,1298.0,,3,,,,,,,total elongation ,,,,,45
295,59,10.1016/j.msea.2012.12.018,CrNbTiZr,BCC+laves,M,HIP+A,,6.6,418,C,25.0,1260.0,,6,,,,,,,,,,,,45
299,59,10.1016/j.msea.2012.12.018,NbTiV2Zr,BCC,S,HIP+A,500-600,6.4,304,C,25.0,918.0,,> 50,,109.0,,,,,,,,,,45
303,59,10.1016/j.msea.2012.12.018,NbTiVZr,BCC,S,HIP+A,500-600,6.5,335,C,25.0,1105.0,,> 50,,104.0,,,,,,,,,,45
310,62,10.1016/j. matlet.2016.03.133,HfMo0.25NbTaTiZr,BCC,S,AC,,9.9,395,C,25.0,1112.0,,50,,,96.0,,,,total elongation ,,,,,48
311,62,10.1016/j. matlet.2016.03.133,HfMo0.5NbTaTiZr,BCC,S,AC,,10.0,480,C,25.0,1317.0,,50,,,102.0,,,,,,,,,48
312,62,10.1016/j. matlet.2016.03.133,HfMo0.75NbTaTiZr,BCC,S,AC,,10.0,492,C,25.0,1373.0,,50,,,109.0,,,,,,,,,48
313,62,10.1016/j. matlet.2016.03.133,HfMoNbTaTiZr,BCC,S,AC,,10.0,505,C,25.0,1512.0,1800.0,12,,,115.0,,,,,,,,,48
314,62,10.1016/j. matlet.2016.03.133,HfNbTaTiZr,BCC,S,AC,,9.9,335,C,25.0,1015.0,,50,,,85.0,,,,,,,,,48
315,63,10.1016/j.intermet.2015.03.013,HfMoNbTaTiZr,BCC,S,AC,,10.0,505,C,25.0,1512.0,,12,,147.0,,,,,total elongation ,,,,,49
319,63,10.1016/j.intermet.2015.03.013,HfMoTaTiZr,BCC,S,AC,,10.2,542,C,25.0,1600.0,1743.0,4,,155.0,,,,,,,,,,49
330,65,10.1016/j.matlet.2016.03.092,HfNbSi0.5TiV,BCC+silicide,M,AC,,8.6,490,C,25.0,1399.0,1608.0,11,,,,,,,cold crucible leviation melting = AC,,,,,51
331,68,10.1063/1.4966659,Hf0.5Nb0.5Ta0.5Ti1.5Zr,BCC,S,AC,,8.1,301,T,25.0,903.0,990.0,19,,107.0,,,,,total elongation ,,,,,52
339,72,10.3390/e18050189,MoNbTaV,BCC,S,A,200,10.7,504,C,25.0,1525.0,2400.0,21,,187.0,,,,,total elongation ,,,,,56
340,73,10.1016/j.intermet.2011.01.004,MoNbTaVW,BCC,S,AC,80,12.4,536,C,25.0,1246.0,1270.0,2,,232.0,,,,,total elongation ,,,,,57
347,73,10.1016/j.intermet.2011.01.004,MoNbTaW,BCC,S,AC,200,13.7,454,C,25.0,1058.0,1211.0,2,,258.0,,,,,,,,,,57
379,77,10.1016/j.jallcom.2015.07.185,CoFeMo0.2NiV,FCC+Im,M,AC,,8.0,267,,25.0,,,,,,,,,,,,,,,60
380,77,10.1016/j.jallcom.2015.07.185,CoFeMo0.4NiV,FCC+Im,M,AC,,8.1,402,,25.0,,,,,,,,,,,,,,,60
381,77,10.1016/j.jallcom.2015.07.185,CoFeMo0.6NiV,FCC+Im,M,AC,,8.2,557,,25.0,,,,,,,,,,,,,,,60
382,77,10.1016/j.jallcom.2015.07.185,CoFeMo0.8NiV,FCC+Im,M,AC,,8.3,606,,25.0,,,,,,,,,,,,,,,60
383,77,10.1016/j.jallcom.2015.07.185,CoFeMoNi1.2V,FCC+Im,M,AC,,8.4,602,,25.0,,,,,,,,,,,,,,,60
384,77,10.1016/j.jallcom.2015.07.185,CoFeMoNi1.4V,FCC+Im,M,AC,,8.5,538,,25.0,,,,,,,,,,,,,,,60
385,77,10.1016/j.jallcom.2015.07.185,CoFeMoNi1.6V,FCC+Im,M,AC,,8.5,520,,25.0,,,,,,,,,,,,,,,60
386,77,10.1016/j.jallcom.2015.07.185,CoFeMoNi1.8V,FCC+Im,M,AC,,8.5,510,,25.0,,,,,,,,,,,,,,,60
387,77,10.1016/j.jallcom.2015.07.185,CoFeMoNi2V,FCC+Im,M,AC,,8.5,382,,25.0,,,,,,,,,,,,,,,60
388,77,10.1016/j.jallcom.2015.07.185,CoFeMoNiV,FCC+Im,M,AC,,8.4,625,,25.0,,,,,,,,,,,,,,,60
389,77,10.1016/j.jallcom.2015.07.185,CoFeNiV,FCC,S,AC,,7.8,238,,25.0,,,,,187.0,,,,,,,,,,60
394,79,10.1016/j.jallcom.2015.07.285,(CuMnNi)75Zn25,FCC,S,AC,,8.3,147,C,25.0,215.0,,>60,,169.0,,,,,,,,,,62
395,79,10.1016/j.jallcom.2015.07.285,(CuMnNi)80Zn20,FCC,S,AC,,8.3,109,C,25.0,140.0,,>65,,171.0,,,,,,,,,,62
396,79,10.1016/j.jallcom.2015.07.285,(CuMnNi)90Al10,FCC+Im,M,AC,,8.1,241,C,25.0,515.0,,40,,,,,,,,,,,,62
397,79,10.1016/j.jallcom.2015.07.285,(CuMnNi)90Sn10,FCC+heusler,M,AC,,8.3,318,C,25.0,630.0,,20,,,,,,,,,,,,62
398,79,10.1016/j.jallcom.2015.07.285,(CuMnNi)95Al5,FCC,S,AC,,8.3,166,C,25.0,330.0,,>45,,174.0,,,,,,,,,,62
399,79,10.1016/j.jallcom.2015.07.285,(CuMnNi)95Sn5,FCC+heusler,M,AC,,8.4,205,C,25.0,380.0,,>63,,,,,,,,,,,,62
473,Couzinie_20,10.1016/j.matchemphys.2017.06.054,CrTaTi0.17VW,BCC+Laves,M,SPS,,12.5,715,C,25.0,2034.0,,1-2,,,,,,,"Jasper: Added HV values from Fig 5, corrected alloy formula to reflect what is stated in the article",,,,,71
475,Couzinie_20,10.1016/j.matchemphys.2017.06.054,CrTaTi0.3VW,BCC+Laves,M,SPS,,12.2,780,C,25.0,2050.0,,1-2,,,,,,,,,,,,71
477,Couzinie_20,10.1016/j.matchemphys.2017.06.054,CrTaVW,BCC+Laves,M,SPS,,12.9,715,C,25.0,2327.0,,1-2,,,,,,,,,,,,71
484,Couzinie_22,10.1016/j.jallcom.2015.11.091,Hf0.5Mo0.5NbSi0.1TiZr,BCC+laves,M,AC,,7.7,442,C,25.0,1350.0,2150.0,,28.0,,,,,,,,,,,73
485,Couzinie_22,10.1016/j.jallcom.2015.11.091,Hf0.5Mo0.5NbSi0.3TiZr,BCC+laves,M,AC,,7.5,494,C,25.0,1370.0,1950.0,,23.0,,,,,,,,,,,73
486,Couzinie_22,10.1016/j.jallcom.2015.11.091,Hf0.5Mo0.5NbSi0.5TiZr,BCC+laves,M,AC,,7.2,524,C,25.0,1600.0,1900.0,,23.0,,,,,,,,,,,73
487,Couzinie_22,10.1016/j.jallcom.2015.11.091,Hf0.5Mo0.5NbSi0.7TiZr,BCC+laves,M,AC,,7.0,580,C,25.0,1550.0,1900.0,,12.0,,,,,,,,,,,73
488,Couzinie_22,10.1016/j.jallcom.2015.11.091,Hf0.5Mo0.5NbSi0.9TiZr,BCC+laves,M,AC,,6.8,640,C,25.0,1650.0,2000.0,,9.0,,,,,,,,,,,73
489,Couzinie_22,10.1016/j.jallcom.2015.11.091,Hf0.5Mo0.5NbTiZr,BCC+laves,S,AC,,7.9,400,C,25.0,1150.0,1500.0,,25.0,123.1,,,,,,,,,,73
511,Couzinie_25,10.1016/j.matlet.2016.03.133,HfMo0.25NbTaTiZr,BCC,S,AC,,9.9,,C,25.0,1112.0,,,,121.0,,,,,,,,,,75
512,Couzinie_25,10.1016/j.matlet.2016.03.133,HfMo0.5NbTaTiZr,BCC,S,AC,,9.9,,C,25.0,1317.0,,,,130.5,,,,,,,,,,75
513,Couzinie_25,10.1016/j.matlet.2016.03.133,HfMo0.75NbTaTiZr,BCC,S,AC,,9.9,,C,25.0,1373.0,,,,139.1,,,,,,,,,,75
514,Couzinie_25,10.1016/j.matlet.2016.03.133,HfMoNbTaTiZr,BCC,S,AC,,9.9,,C,25.0,1512.0,1800.0,,,147.0,,,,,,,,,,75
515,Couzinie_25,10.1016/j.matlet.2016.03.133,HfNbTaTiZr,BCC,S,AC,,9.9,,C,25.0,1015.0,,,,110.6,,,,,,,,,,75
516,Couzinie_26,10.1016/j.jallcom.2016.10.014,HfMo0.5NbSi0.3TiV0.5,BCC+M5Si3,M,AC,,8.5,,C,1000.0,398.0,430.0,,,,,,,,,,,,,76
517,Couzinie_26,10.1016/j.jallcom.2016.10.014,HfMo0.5NbSi0.3TiV0.5,BCC+M5Si3,M,AC,,8.5,,C,25.0,1617.0,2016.0,,,,,,,,,,,,,76
518,Couzinie_26,10.1016/j.jallcom.2016.10.014,HfMo0.5NbSi0.3TiV0.5,BCC+M5Si3,M,AC,,8.5,,C,1200.0,166.0,187.0,,,,,,,,,,,,,76
519,Couzinie_26,10.1016/j.jallcom.2016.10.014,HfMo0.5NbSi0.5TiV0.5,BCC+M5Si3,M,AC,,8.2,,C,1000.0,614.0,696.0,,,,,,,,,,,,,76
520,Couzinie_26,10.1016/j.jallcom.2016.10.014,HfMo0.5NbSi0.5TiV0.5,BCC+M5Si3,M,AC,,8.2,,C,25.0,1787.0,2052.0,,,,,,,,,,,,,76
521,Couzinie_26,10.1016/j.jallcom.2016.10.014,HfMo0.5NbSi0.5TiV0.5,BCC+M5Si3,M,AC,,8.2,,C,1200.0,188.0,219.0,,,,,,,,,,,,,76
522,Couzinie_26,10.1016/j.jallcom.2016.10.014,HfMo0.5NbSi0.7TiV0.5,BCC+M5Si3,M,AC,,7.9,,C,1000.0,673.0,741.0,,,,,,,,,,,,,76
523,Couzinie_26,10.1016/j.jallcom.2016.10.014,HfMo0.5NbSi0.7TiV0.5,BCC+M5Si3,M,AC,,7.9,,C,25.0,2134.0,2242.0,,,,,,,,,,,,,76
524,Couzinie_26,10.1016/j.jallcom.2016.10.014,HfMo0.5NbSi0.7TiV0.5,BCC+M5Si3,M,AC,,7.9,,C,1200.0,235.0,268.0,,,,,,,,,,,,,76
525,Couzinie_26,10.1016/j.jallcom.2016.10.014,HfMo0.5NbTiV0.5,BCC,S,AC,,9.0,,C,1000.0,368.0,394.0,,,131.9,,,,,,,,,,76
526,Couzinie_26,10.1016/j.jallcom.2016.10.014,HfMo0.5NbTiV0.5,BCC,S,AC,,9.0,,C,1200.0,60.0,,,,,,,,,,,,,,76
527,Couzinie_26,10.1016/j.jallcom.2016.10.014,HfMo0.5NbTiV0.5,BCC,S,AC,,9.0,,C,25.0,1260.0,,,,,,,,,,,,,,76
528,Couzinie_29,10.1080/21663831.2016.1221861,HfNb0.18Ta0.18Ti1.27Zr,BCC,S,CR+A,,8.5,,T,25.0,540.0,995.0,,,95.2,,,,,,,,,,77
529,Couzinie_3,10.1016/j.matdes.2017.11.033,Al0.25NbTaTiZr,BCC+B2,M,HIP+A,,8.6,,C,1000.0,366.0,408.0,,,,,,,,,,,,,78
530,Couzinie_3,10.1016/j.matdes.2017.11.033,Al0.25NbTaTiZr,BCC+B2,M,HIP+A,,8.6,,C,25.0,1745.0,1830.0,,,,,,,,,,,,,78
531,Couzinie_3,10.1016/j.matdes.2017.11.033,Al0.5Mo0.5NbTa0.5TiZr,BCC+B2,M,HIP+A,,7.6,,C,1000.0,579.0,646.0,,,,,,,,,,,,,78
532,Couzinie_3,10.1016/j.matdes.2017.11.033,Al0.5Mo0.5NbTa0.5TiZr,BCC+B2,M,HIP+A,,7.6,,C,25.0,2350.0,2460.0,,,,,,,,,,,,,78
533,Couzinie_3,10.1016/j.matdes.2017.11.033,AlMo0.5NbTa0.5TiZr,BCC+B2,M,HIP+A,,7.1,,C,1000.0,745.0,792.0,,,,,,,,,,,,,78
534,Couzinie_3,10.1016/j.matdes.2017.11.033,AlMo0.5NbTa0.5TiZr,BCC+B2,M,HIP+A,,7.1,,C,25.0,2197.0,2370.0,,,,,,,,,,,,,78
535,Couzinie_3,10.1016/j.matdes.2017.11.033,AlMo0.5NbTa0.5TiZr0.5,B2,S,HIP+A,,7.2,,C,1000.0,935.0,1019.0,,,,,,,,,,,,,78
536,Couzinie_3,10.1016/j.matdes.2017.11.033,AlMo0.5NbTa0.5TiZr0.5,B2,S,HIP+A,,7.2,,C,25.0,,1320.0,,,,,,,,,,,,,78
537,Couzinie_3,10.1016/j.matdes.2017.11.033,AlNbTa0.5TiZr0.5,B2,S,HIP+A,,6.9,,C,1000.0,535.0,542.0,,,,,,,,,,,,,78
538,Couzinie_3,10.1016/j.matdes.2017.11.033,AlNbTa0.5TiZr0.5,B2,S,HIP+A,,6.9,,C,25.0,1352.0,1357.0,,,,,,,,,,,,,78
539,Couzinie_31,10.4028/www.scientific.net/MSF.849.76,HfNbSi0.5TiVZr,BCC+Laves+M5Si3,M,A,,7.5,,C,400.0,1273.0,1335.0,14.5,,,,,,,,,,,,79
540,Couzinie_31,10.4028/www.scientific.net/MSF.849.76,HfNbSi0.5TiVZr,BCC+Laves+M5Si3,M,A,,7.5,,C,600.0,597.0,651.0,>50,,,,,,,,,,,,79
541,Couzinie_31,10.4028/www.scientific.net/MSF.849.76,HfNbSi0.5TiVZr,BCC+Laves+M5Si3,M,A,,7.5,,C,800.0,102.0,107.0,>50,,,,,,,,,,,,79
542,Couzinie_31,10.4028/www.scientific.net/MSF.849.76,HfNbSi0.5TiVZr,BCC+Laves+M5Si3,M,A,,7.5,,C,25.0,1483.0,1611.0,9.5,,,,,,,,,,,,79
543,Couzinie_31,10.4028/www.scientific.net/MSF.849.76,HfNbSi0.5TiVZr,BCC+Laves+M5Si3,M,AC,,7.5,,C,600.0,920.0,1252.0,>50,,,,,,,,,,,,79
544,Couzinie_31,10.4028/www.scientific.net/MSF.849.76,HfNbSi0.5TiVZr,BCC+Laves+M5Si3,M,AC,,7.5,,C,800.0,371.0,427.0,>50,,,,,,,,,,,,79
545,Couzinie_31,10.4028/www.scientific.net/MSF.849.76,HfNbSi0.5TiVZr,BCC+Laves+M5Si3,M,AC,,7.5,,C,25.0,1540.0,1643.0,16.8,,,,,,,,,,,,79
546,Couzinie_32,10.1016/j.actamat.2017.09.035,HfNbTaTiZr,BCC,S,SPD,0.05,9.9,420,T,25.0,1900.0,,7.9,,110.6,,,,,,,,,,80
547,Couzinie_32,10.1016/j.actamat.2017.09.035,HfNbTaTiZr,BCC+HCP,M,SPD+A,0.05,9.9,530,T,25.0,1520.0,,1.7,,,,,,,,,,,,80
548,Couzinie_32,10.1016/j.actamat.2017.09.035,HfNbTaTiZr,BCC+BCC+HCP,M,SPD+A,0.1,9.9,340,T,25.0,795.0,,5,,,,,,,,,,,,80
549,Couzinie_32,10.1016/j.actamat.2017.09.035,HfNbTaTiZr,BCC,S,CR+A,100,9.9,309,T,25.0,830.0,840.0,9.2,,110.6,,,,,,,,,,80
550,Couzinie_33,10.1016/j.jallcom.2015.07.209,HfNbTaTiZr,BCC,S,CR,,9.9,366,T,25.0,1202.0,1295.0,4.7,,110.6,,,,,,,,,,81
551,Couzinie_33,10.1016/j.jallcom.2015.07.209,HfNbTaTiZr,BCC+BCC,M,CR+A,,9.9,,T,25.0,1303.0,1334.0,,,,,,,,,,,,,81
552,Couzinie_33,10.1016/j.jallcom.2015.07.209,HfNbTaTiZr,BCC,S,CR+A,,9.9,351,T,25.0,1145.0,1262.0,9.7,,110.6,,,,,,,,,,81
553,Couzinie_34,10.1016/j.matlet.2016.08.060,HfNbTaTiZr,BCC,S,CR+A,,9.9,,T,25.0,958.0,974.0,,,110.6,,,,,,,,,,82
554,Couzinie_34,10.1016/j.matlet.2016.08.060,HfNbTaTiZr,BCC,S,CR+A,,9.9,,T,25.0,944.0,959.0,,,110.6,,,,,,,,,,82
555,Couzinie_34,10.1016/j.matlet.2016.08.060,HfNbTaTiZr,BCC,S,CR+A,,9.9,,T,25.0,940.0,953.0,,,110.6,,,,,,,,,,82
556,Couzinie_35,10.1016/j.actamat.2017.09.062,HfNbTaTiZr,BCC,S,CR+A,,9.9,,T,25.0,940.0,1080.0,,,110.6,,,,,,,,,,83
557,Couzinie_36,10.1016/j.jallcom.2011.02.171,HfNbTaTiZr,BCC,S,HIP+A,,9.9,,C,25.0,929.0,,,,110.6,,,,,,,,,,84
558,Couzinie_37,10.1016/j.msea.2015.08.024,HfNbTaTiZr,BCC,S,AC,,9.9,,C,25.0,905.0,,,,110.6,,,,,,,,,,85
559,Couzinie_38,10.1016/j.matchar.2015.11.018,HfNbTaTiZr,BCC,S,AC,,9.9,,C,25.0,890.0,,,,110.6,,,,,,,,,,86
560,Couzinie_39,10.1016/j.msea.2015.12.017,HfNbTaTiZr,BCC,S,AC,,9.9,,T,25.0,828.0,862.0,,,110.6,,,,,,,,,,87
561,Couzinie_39,10.1016/j.msea.2015.12.017,HfNbTaTiZr,BCC,S,AC,,9.9,,T,25.0,827.0,856.0,,,110.6,,,,,,,,,,87
562,Couzinie_39,10.1016/j.msea.2015.12.017,HfNbTaTiZr,BCC,S,AC,,9.9,,T,25.0,820.0,869.0,,,110.6,,,,,,,,,,87
563,Couzinie_39,10.1016/j.msea.2015.12.017,HfNbTaTiZr,BCC,S,AC,,9.9,,T,25.0,803.0,810.0,,,110.6,,,,,,,,,,87
564,Couzinie_4,10.4028/www.scientific.net/MSF.898.638,Al0.2MoTaTiV,BCC,S,AC,,9.2,,C,25.0,1021.0,1249.0,,,184.0,,,,,,,,,,88
565,Couzinie_4,10.4028/www.scientific.net/MSF.898.638,Al0.6MoTaTiV,BCC,S,AC,,8.6,,C,25.0,962.0,1033.0,,,174.1,,,,,,,,,,88
566,Couzinie_4,10.4028/www.scientific.net/MSF.898.638,AlMoTaTiV,BCC,S,AC,,8.2,,C,25.0,,735.0,,,165.8,,,,,,,,,,88
567,Couzinie_4,10.4028/www.scientific.net/MSF.898.638,MoTaTiV,BCC,S,AC,,9.5,,C,25.0,1221.0,1454.0,,,189.8,,,,,,,,,,88
568,Couzinie_41,10.1016/j.actamat.2016.01.018,HfNbTaZr,BCC+HCP,M,A,,11.1,571,C,25.0,2310.0,,0.3,,,,,,,,,,,,89
569,Couzinie_41,10.1016/j.actamat.2016.01.018,HfNbTaZr,BCC+HCP,M,A,,11.1,536,C,25.0,2100.0,2200.0,3.5,,,,,,,,,,,,89
570,Couzinie_41,10.1016/j.actamat.2016.01.018,HfNbTaZr,BCC+HCP,M,A,,11.1,,C,25.0,2020.0,2030.0,1.7,,,,,,,,,,,,89
571,Couzinie_41,10.1016/j.actamat.2016.01.018,HfNbTaZr,BCC+HCP,M,A,,11.1,550,C,25.0,1950.0,2010.0,2.2,,,,,,,,,,,,89
572,Couzinie_41,10.1016/j.actamat.2016.01.018,HfNbTaZr,BCC,S,AC,,11.1,365,C,25.0,1315.0,1800.0,21.6,,109.3,,,,,,,,,,89
573,Couzinie_43,10.1002/adma.201701678,HfTa0.4TiZr,BCC+HCP,M,AC,,9.2,,T,25.0,400.0,1100.0,,,,,,,,,,,,,90
574,Couzinie_43,10.1002/adma.201701678,HfTa0.5TiZr,BCC+HCP,M,AC,,9.4,,T,25.0,700.0,1100.0,,,,,,,,,,,,,90
575,Couzinie_43,10.1002/adma.201701678,HfTa0.6TiZr,BCC+HCP,M,AC,,9.6,,T,25.0,800.0,1100.0,,,,,,,,,,,,,90
576,Couzinie_43,10.1002/adma.201701678,HfTaTiZr,BCC,S,AC,,10.2,,T,25.0,1500.0,1500.0,,,112.0,,,,,,,,,,90
577,Couzinie_45,10.1016/j.msea.2017.12.004,MoNbTaTi0.25W,BCC,S,AC,,13.0,478.3,C,25.0,1109.0,1197.0,,,249.4,,,,,,,,,,91
578,Couzinie_45,10.1016/j.msea.2017.12.004,MoNbTaTi0.5W,BCC,S,AC,,12.6,481.2,C,25.0,1211.0,1578.0,,,242.0,,,,,,,,,,91
579,Couzinie_45,10.1016/j.msea.2017.12.004,MoNbTaTi0.75W,BCC,S,AC,,12.1,495.6,C,25.0,1304.0,1593.0,,,235.4,,,,,,,,,,91
580,Couzinie_45,10.1016/j.msea.2017.12.004,MoNbTaTiW,BCC,S,AC,,11.7,507.5,C,25.0,1455.0,1910.0,,,229.4,,,,,,,,,,91
581,Couzinie_45,10.1016/j.msea.2017.12.004,MoNbTaW,BCC,S,AC,,13.6,,C,25.0,996.0,1148.0,,,257.8,,,,,,,,,,91
582,Couzinie_46,10.1016/j.jallcom.2016.11.188,MoNbTaTiV,BCC,S,AC,,9.3,,C,25.0,1400.0,2450.0,,,172.8,,,,,,,,,,92
583,Couzinie_47,10.1016/j.intermet.2017.01.007,MoNbTaTiVW,BCC,S,AC,,10.9,,C,600.0,973.0,1590.0,,,212.5,,,,,,,,,,93
584,Couzinie_47,10.1016/j.intermet.2017.01.007,MoNbTaTiVW,BCC,S,AC,,10.9,,C,800.0,791.3,1180.0,,,,,,,,,,,,,93
585,Couzinie_47,10.1016/j.intermet.2017.01.007,MoNbTaTiVW,BCC,S,AC,,10.9,,C,1000.0,752.8,1105.0,,,,,,,,,,,,,93
586,Couzinie_47,10.1016/j.intermet.2017.01.007,MoNbTaTiVW,BCC,S,AC,,10.9,,C,1200.0,659.0,696.0,,,,,,,,,,,,,93
587,Couzinie_47,10.1016/j.intermet.2017.01.007,MoNbTaTiVW,BCC,S,AC,,10.9,,C,25.0,1515.0,2135.0,,,,,,,,,,,,,93
588,Couzinie_47,10.1016/j.intermet.2017.01.007,MoNbTaTiW,BCC,S,AC,,11.7,,C,600.0,689.0,1681.0,,,229.4,,,,,,,,,,93
589,Couzinie_47,10.1016/j.intermet.2017.01.007,MoNbTaTiW,BCC,S,AC,,11.7,,C,800.0,674.0,1618.0,,,,,,,,,,,,,93
590,Couzinie_47,10.1016/j.intermet.2017.01.007,MoNbTaTiW,BCC,S,AC,,11.7,,C,1000.0,620.0,1426.0,,,,,,,,,,,,,93
591,Couzinie_47,10.1016/j.intermet.2017.01.007,MoNbTaTiW,BCC,S,AC,,11.7,,C,1200.0,586.0,814.0,,,,,,,,,,,,,93
592,Couzinie_47,10.1016/j.intermet.2017.01.007,MoNbTaTiW,BCC,S,AC,,11.7,,C,25.0,1343.0,2005.0,,,,,,,,,,,,,93
593,Couzinie_48,10.1016/j.msec.2016.12.057,MoNbTaTiZr,BCC+BCC,M,AC,,9.1,,C,25.0,1390.0,,,,,,,,,,,,,,94
594,Couzinie_49,10.1016/j.scriptamat.2016.10.028,MoNbTaTiZr,BCC+BCC,M,A,,9.1,,C,25.0,1100.0,1200.0,,,,,,,,,,,,,95
595,Couzinie_49,10.1016/j.scriptamat.2016.10.028,MoNbTaTiZr,BCC+BCC,M,AC,,9.1,,C,25.0,1375.0,1450.0,,,,,,,,,,,,,95
596,Couzinie_51,10.1016/j.msea.2017.12.021,MoNbTaVW,BCC,S,SPS,,12.3,,C,25.0,2612.0,3472.0,,,231.8,,,,,,,,,,96
597,Couzinie_54,10.1016/j.msea.2016.07.102,NbTaTiV,BCC,S,AC,,9.1,,C,25.0,965.0,,,,133.8,,,,,,,,,,97
598,Couzinie_54,10.1016/j.msea.2016.07.102,NbTaTiVW,BCC,S,AC,,11.0,,C,25.0,1420.0,1800.0,20,,189.2,,,,,,,,,,97
599,Couzinie_54,10.1016/j.msea.2016.07.102,NbTaVW,BCC,S,AC,,12.8,,C,25.0,1530.0,1700.0,12,,207.5,,,,,,,,,,97
600,Couzinie_8,10.1016/j.matlet.2016.11.030,Al0.5CrNbTi2V0.5,BCC+Laves,M,A,,5.8,,C,600.0,930.0,,,,,,,,,,,,,,98
601,Couzinie_8,10.1016/j.matlet.2016.11.030,Al0.5CrNbTi2V0.5,BCC+Laves,M,A,,5.8,,C,800.0,445.0,,,,143.0,,,,,,,,,,98
602,Couzinie_8,10.1016/j.matlet.2016.11.030,Al0.5CrNbTi2V0.5,BCC+Laves,M,A,,5.8,,C,1000.0,90.0,,,,,,,,,,,,,,98
603,Couzinie_8,10.1016/j.matlet.2016.11.030,Al0.5CrNbTi2V0.5,BCC+Laves,M,A,,5.8,,C,25.0,1340.0,1700.0,,,,,,,,,,,,,98
604,Couzinie_8,10.1016/j.matlet.2016.11.030,Al0.5CrNbTi2V0.5,BCC,S,AC,,5.8,,C,25.0,1240.0,,,,,,,,,,,,,,98
605,Couzinie_9,10.1016/j.jallcom.2015.08.224,AlCr0.5NbTiV,BCC,S,A,,5.6,,C,600.0,1005.0,1045.0,,,124.1,,,,,,,,,,99
606,Couzinie_9,10.1016/j.jallcom.2015.08.224,AlCr0.5NbTiV,BCC,S,A,,5.6,,C,800.0,640.0,685.0,,,,,,,,,,,,,99
607,Couzinie_9,10.1016/j.jallcom.2015.08.224,AlCr0.5NbTiV,BCC,S,A,,5.6,,C,1000.0,40.0,80.0,,,,,,,,,,,,,99
608,Couzinie_9,10.1016/j.jallcom.2015.08.224,AlCr0.5NbTiV,BCC,S,A,,5.6,,C,25.0,1300.0,1430.0,,,,,,,,,,,,,99
609,Couzinie_9,10.1016/j.jallcom.2015.08.224,AlCr1.5NbTiV,BCC+Laves,M,A,,5.8,,C,600.0,1370.0,1480.0,,,,,,,,,,,,,99
610,Couzinie_9,10.1016/j.jallcom.2015.08.224,AlCr1.5NbTiV,BCC+Laves,M,A,,5.8,,C,800.0,970.0,1045.0,,,,,,,,,,,,,99
611,Couzinie_9,10.1016/j.jallcom.2015.08.224,AlCr1.5NbTiV,BCC+Laves,M,A,,5.8,,C,1000.0,75.0,105.0,,,,,,,,,,,,,99
612,Couzinie_9,10.1016/j.jallcom.2015.08.224,AlCr1.5NbTiV,BCC+Laves,M,A,,5.8,,C,25.0,1700.0,1700.0,,,,,,,,,,,,,99
613,Couzinie_9,10.1016/j.jallcom.2015.08.224,AlCrNbTiV,BCC+Laves,M,A,,5.7,,C,600.0,1015.0,1060.0,,,,,,,,,,,,,99
614,Couzinie_9,10.1016/j.jallcom.2015.08.224,AlCrNbTiV,BCC+Laves,M,A,,5.7,,C,800.0,860.0,895.0,,,,,,,,,,,,,99
615,Couzinie_9,10.1016/j.jallcom.2015.08.224,AlCrNbTiV,BCC+Laves,M,A,,5.7,,C,1000.0,65.0,95.0,,,,,,,,,,,,,99
616,Couzinie_9,10.1016/j.jallcom.2015.08.224,AlCrNbTiV,BCC+Laves,M,A,,5.7,,C,25.0,1550.0,1570.0,,,,,,,,,,,,,99
617,Couzinie_9,10.1016/j.jallcom.2015.08.224,AlNbTiV,BCC,S,A,,5.5,,C,600.0,780.0,1005.0,,,104.8,,,,,,,,,,99
618,Couzinie_9,10.1016/j.jallcom.2015.08.224,AlNbTiV,BCC,S,A,,5.5,,C,800.0,560.0,700.0,,,,,,,,,,,,,99
619,Couzinie_9,10.1016/j.jallcom.2015.08.224,AlNbTiV,BCC,S,A,,5.5,,C,1000.0,110.0,,,,,,,,,,,,,,99
620,Couzinie_9,10.1016/j.jallcom.2015.08.224,AlNbTiV,BCC,S,A,,5.5,,C,25.0,1000.0,1280.0,,,,,,,,,,,,,99
621,new_ref_2,10.1002/maco.201709833,AlCrFeNiMo0.5,BCC+B2,M,AC,,,623.7,C,25.0,1914.1,4023.6,27.9,,,,,,,,,,,,277
622,new_ref_2,10.1002/maco.201709833,AlCrFeNiMo0.5Ti0.25,BCC+B2,M,AC,,,712,C,25.0,2161.7,3641.5,14.3,,,,,,,,,,,,277
623,new_ref_2,10.1002/maco.201709833,AlCrFeNiMo0.5Ti0.4,BCC+B2,M,AC,,,731.9,C,25.0,2185.1,3673.4,14.8,,,,,,,,,,,,277
624,new_ref_2,10.1002/maco.201709833,AlCrFeNiMo0.5Ti0.5,BCC+B2,M,AC,,,751.7,C,25.0,2228.7,3166.2,10.4,,,,,,,,,,,,277
625,new_ref_2,10.1002/maco.201709833,AlCrFeNiMo0.5Ti0.6,BCC+B2,M,AC,,,756.1,C,25.0,1314.5,1314.5,,,,,,,,,,,,,277
626,new_ref_2,10.1002/maco.201709833,AlCrFeNiMo0.5Ti0.75,BCC+B2,M,AC,,,766.2,C,25.0,618.8,618.8,,,,,,,,,,,,,277
627,new_ref_4,10.1016/j.matdes.2018.06.003,AlCrMoNb,Laves (C14)+A15,M,A,,,,,,,,,,,,,,,,,,,,278
628,new_ref_4,10.1016/j.matdes.2018.06.003,AlCrMoNb,Laves (C14)+A15,M,AC,,,,,,,,,,,,,,,,,,,,278
629,new_ref_4,10.1016/j.matdes.2018.06.003,AlHfNbTi,B2,S,A,,,,,,,,,,,,,,,,,,,,278
630,new_ref_4,10.1016/j.matdes.2018.06.003,AlHfNbTi,B2,S,AC,,,,,,,,,,,,,,,,,,,,278
631,new_ref_4,10.1016/j.matdes.2018.06.003,AlHfTaTi,B2,S,A,,,,,,,,,,,,,,,,,,,,278
632,new_ref_4,10.1016/j.matdes.2018.06.003,AlHfTaTi,B2,S,AC,,,,,,,,,,,,,,,,,,,,278
633,new_ref_4,10.1016/j.matdes.2018.06.003,AlMoNbTi,BCC+A15,M,A,,,,,,,,,,,,,,,,,,,,278
634,new_ref_4,10.1016/j.matdes.2018.06.003,AlMoNbTi,BCC,S,AC,,,509 $\pm$ 18,,,,,,,,,,,,,,,,,278
635,new_ref_4,10.1016/j.matdes.2018.06.003,AlNbTaTi,BCC+A15,M,A,,,,,,,,,,,,,,,,,,,,278
636,new_ref_4,10.1016/j.matdes.2018.06.003,AlNbTaTi,BCC,S,AC,,,458 $\pm$ 10,,,,,,,,,,,,,,,,,278
637,new_ref_4,10.1016/j.matdes.2018.06.003,CrMoTaTi,BCC,S,A,,,555 $\pm$ 24,,,,,,,,,,,,,,,,,278