,REFERENCE: tag,REFERENCE: doi,FORMULA,PROPERTY: Type of phases,PROPERTY: Single/Multiphase,PROPERTY: synthesis method,PROPERTY: grain size ($\mu$m),PROPERTY: ROM Density (g/cm$^3$),PROPERTY: HV,PROPERTY: Type of test,PROPERTY: Test temperature ($^\circ$C),PROPERTY: YS (MPa),PROPERTY: UTS (MPa),PROPERTY: Elongation (%),PROPERTY: Elongation plastic (%),PROPERTY: Young modulus (GPa),PROPERTY: O content (wppm),PROPERTY: N content (wppm),PROPERTY: C content (wppm),REFERENCE: comment,"Internal Reference # (J4, J90)","J4, J90 Original DOI",PROPERTY: Exp. Density (g/cm$^3$),Unnamed: 22,IDENTIFIER: Reference ID
800,J90,10.1016/j.msea.2019.05.056,Al0.5CoCrCuFeNiV1,Sigma + FCC + BCC,M,,,,640,,,,,,,,,,,,37,10.1007/s11661-006-0081-3,,,208
801,J90,10.1016/j.msea.2019.05.056,Al0.5CoCrCuFeNiV1.5,Sigma + FCC + BCC,M,,,,576,,,,,,,,,,,,37,10.1007/s11661-006-0081-3,,,208
802,J90,10.1016/j.msea.2019.05.056,Al0.5CoCrCuFeNiV2,FCC + BCC,M,,,,550,,,,,,,,,,,,37,10.1007/s11661-006-0081-3,,,208
803,J90,10.1016/j.msea.2019.05.056,AlCrFeCoNiCuMn,FCC + BCC,M,,,,,C,25.0,1005,,,,,,,,,38,10.1016/j.msea.2008.08.025,,,208
804,J90,10.1016/j.msea.2019.05.056,AlCrFeCoNiCuTi,BCC + FCC,M,,,,,C,25.0,1243,,,,,,,,,38,10.1016/j.msea.2008.08.025,,,208
805,J90,10.1016/j.msea.2019.05.056,Al0.3CoCrFeNi,FCC,S,,,,160,,,,,,,,,,,,39,10.1016/j.jallcom.2010.02.032,,,208
806,J90,10.1016/j.msea.2019.05.056,Al0.3CoCrFeNiMo0.1,FCC,S,,,,200,,,,,,,,,,,,39,10.1016/j.jallcom.2010.02.032,,,208
807,J90,10.1016/j.msea.2019.05.056,Al5Cr12Fe35Mn28Ni20,FCC,S,AC,,,,T,25.0,280,556,48,48.2,,,,,actually made by the paper,,This Paper,,,208
808,J90,10.1016/j.msea.2019.05.056,Al10Cr12Fe35Mn23Ni20,FCC,S,CR,,,,T,25.0,320,625,42.2,42.45,,,,,,,This Paper,,,208
809,J90,10.1016/j.msea.2019.05.056,Al5Cr12Fe35Mn28Ni20,FCC,S,AC,,,,T,25.0,1253,1392,6.78,8.2,,,,,,,This Paper,,,208
810,J90,10.1016/j.msea.2019.05.056,Al10Cr12Fe35Mn23Ni20,FCC,S,CR,,,,T,25.0,1400,1500,5.83,7.85,,,,,,,This Paper,,,208
811,J91,10.1016/j.msea.2019.04.096,CoCuFeMnNi,FCC,S,AC,,,,,800.0,,,,,,,,,,,,,,209
812,J91,10.1016/j.msea.2019.04.096,CoCuFeMnNi,FCC,S,AC,,,,,900.0,,,,,,,,,,,,,,209
813,J91,10.1016/j.msea.2019.04.096,CoCuFeMnNi,FCC,S,AC,,,,,100.0,,,,,,,,,,,,,,209
814,J92,10.1016/j.msea.2019.05.078,CoCrFeNiMo0.15,FCC,S,AC,,,,T,25.0,489 $\pm$ 2,895 $\pm$ 10,,53.6 $\pm$ 0.7,,,,,,,,,,210
815,J92,10.1016/j.msea.2019.05.078,CoCrFeNiMo0.15,,,CR+A,,,,T,25.0,873 $\pm$ 27,,,23.4 $\pm$ 1.1,,,,,CR,,,,,210
816,J92,10.1016/j.msea.2019.05.078,CoCrFeNiMo0.15,,,CR+A,,,,T,25.0,952 $\pm$ 35,1122 $\pm$ 17,,14.2 $\pm$ 0.5,,,,,,,,,,210
817,J92,10.1016/j.msea.2019.05.078,CoCrFeNiMo0.15,FCC,S,CR+A,,,,T,25.0,1136 $\pm$ 3,1245 $\pm$ 0.8,,8.7 $\pm$ 0.7,,,,,,,,,,210
818,J92,10.1016/j.msea.2019.05.078,CoCrFeNiMo0.15,FCC,S,CR+A,,,,T,25.0,1301 $\pm$ 28,1493 $\pm$ 30,,7.2 $\pm$ 0.5,,,,,,,,,,210
819,J92,10.1016/j.msea.2019.05.078,CoCrFeNiMo0.15,,,CR+A,,,,T,25.0,1311 $\pm$ 14,1421 $\pm$ 27,,5.9 $\pm$ 0.3,,,,,,,,,,210
820,J92,10.1016/j.msea.2019.05.078,CoCrFeNiMo0.15,,,CR+A,,,,T,25.0,1273 $\pm$ 16,1458 $\pm$ 28,,5.5 $\pm$ 0.4,,,,,,,,,,210
821,J93,10.1016/j.msea.2019.05.003,CuNi1.01Si0.28Co0.14Cr0.45,,M,CR+A,,,142.5,T,25.0,777,810,3.4,,,,,,added multiphase,,,,,211
822,J93,10.1016/j.msea.2019.05.003,CuNi1.01Si0.28Co0.14Cr0.45,,M,CR+A,,,147.4,,,,,,,,,,,added multiphase,,,,,211
823,J93,10.1016/j.msea.2019.05.003,CuNi1.01Si0.28Co0.14Cr0.45,,M,CR+A,,,155.2,,,,,,,,,,,added multiphase,,,,,211
824,J95,10.1038/s41467-019-10533-1,Co33W07Al33Nb24Cr03,,,AC,,,1084,,25.0,,,,,,,,,,,,,,212
825,J95,10.1038/s41467-019-10533-1,Ti18Ni24Ta12Cr22Co24,,,AC,,,1011,,25.0,,,,,,,,,,,,,,212
826,J95,10.1038/s41467-019-10533-1,Co6W9Al36Mo38Ni11,,,AC,,,725,,25.0,,,,,,,,,,,,,,212
827,J95,10.1038/s41467-019-10533-1,Ni47Co02Ta12Ti9Nb30,,,AC,,,815,,25.0,,,,,,,,,,,,,,212
828,J95,10.1038/s41467-019-10533-1,Ti44Ni02Nb21Cr21Co12,,,AC,,,422,,25.0,,,,,,,,,,,,,,212
829,J95,10.1038/s41467-019-10533-1,Ti32Nb9Ta01Cr19Co39,,,AC,,,856,,25.0,,,,,,,,,,,,,,212
830,J95,10.1038/s41467-019-10533-1,Ti39W04Nb31Ta04Co22,,,AC,,,277,,25.0,,,,,,,,,,,,,,212
831,J98,10.1016/j.jmst.2018.12.014,AlCoCuFeNi0.5,FCC + BCC + B2,M,AC,,,430.9,C,25.0,929,,13.7,,,,,,,,,,,213
832,J98,10.1016/j.jmst.2018.12.014,AlCoCuFeNi0.8,FCC + BCC + B2,M,AC,,,420,C,25.0,1021,,12.3,,,,,,,,,,,213
833,J98,10.1016/j.jmst.2018.12.014,AlCoCuFeNi,FCC + BCC + B2,M,AC,,,391.4,C,25.0,994,,24.5,,,,,,,,,,,213
834,J98,10.1016/j.jmst.2018.12.014,AlCoCuFeNi1.5,FCC + BCC + B2,M,AC,,,323.8,C,25.0,680,,35.9,,,,,,,,,,,213
835,J98,10.1016/j.jmst.2018.12.014,AlCoCuFeNi2,FCC + BCC + B2,M,AC,,,299.2,C,25.0,544,,,,,,,,,,,,,213
836,J98,10.1016/j.jmst.2018.12.014,AlCoCuFeNi3,FCC,S,AC,,,279.6,C,25.0,268,,,,,,,,,,,,,213
837,J100,10.1016/j.msea.2019.04.104,Al0.5CrFeMnNi,BCC + B2,M,AC,,,353,C,25.0,1091,,50,,,,,,,,,,,101
838,J100,10.1016/j.msea.2019.04.104,Al0.6CrFeMnNi,BCC + B2,M,AC,,,361,C,25.0,1130,,53,,,,,,,,,,,101
839,J100,10.1016/j.msea.2019.04.104,Al0.7CrFeMnNi,BCC + B2,M,AC,,,375,C,25.0,1170,,55,,,,,,,,,,,101
840,J100,10.1016/j.msea.2019.04.104,Al0.8CrFeMnNi,BCC + B2,M,AC,,,386,C,25.0,1200,,55,,,,,,,,,,,101
841,J102,10.1016/j.jmmm.2019.01.096,FeCoNiCr0.2Si0.2,FCC,S,AC,,,130.1,T,25.0,225,732,61,,,,,,,,,,,102
842,J102,10.1016/j.jmmm.2019.01.096,FeCoNiCr0.2Si0.2,FCC,S,HR,,,318.2,T,25.0,705,1070,10,,,,,,changed processing to hot rolling,,,,,102
843,J102,10.1016/j.jmmm.2019.01.096,FeCoNiCr0.2Si0.2,FCC,S,HR + A,,,153.8,T,25.0,320,920,60,,,,,,changed processing to hot rolling,,,,,102
844,J105,10.1038/s41598-019-43329-w,Al65Cu5Mg5Si15Zn5Fe5,FCC,S,AC,,,,C,25.0,422 $\pm$ 75,,1,,88.7 $\pm$ 0.4,,,,,,,3.08,,103
845,J105,10.1038/s41598-019-43329-w,Al65Cu5Mg5Si15Zn5Ni5,FCC,S,AC,,,,C,25.0,534 $\pm$ 4,,1,,107.8 $\pm$ 17,,,,,,,3.15,,103
846,J105,10.1038/s41598-019-43329-w,Al65Cu5Mg5Si15Zn5Cr5,FCC,S,AC,,,,C,25.0,490 $\pm$ 18,,6,,78.4 $\pm$ 3,,,,,,,3.06,,103
847,J105,10.1038/s41598-019-43329-w,Al65Cu5Mg5Si15Zn5Mn5,FCC,S,AC,,,,C,25.0,622 $\pm$ 15,,2,,114.1 $\pm$ 2,,,,,,,2.98,,103
848,J105,10.1038/s41598-019-43329-w,Al65Cu5Mg5Si15Zn5Zr5,FCC + Laves,M,AC,,,,C,25.0,565 $\pm$ 79,,4,,105.1 $\pm$ 27,,,,,,,3.06,,103
849,J106,10.3390/e21050448,CoCrFeNiMo0.2,FCC,S,AC,,,,T,25.0,400,780,53,,,,,,"For some reason, missing Yield Strength data",,,,,104
850,J106,10.3390/e21050448,CoCrFeNiMo0.2,FCC,S,A,,,,T,25.0,,838,43,,,,,,,,,,,104
851,J106,10.3390/e21050448,CoCrFeNiMo0.2,FCC,S,A,,,,T,25.0,,899,31,,,,,,,,,,,104
852,J106,10.3390/e21050448,CoCrFeNiMo0.2,FCC,S,A,,,,T,25.0,,902,29,,,,,,,,,,,104
853,J106,10.3390/e21050448,CoCrFeNiMo0.2,FCC,S,A,,,,T,25.0,,811,52,,,,,,,,,,,104
854,J106,10.3390/e21050448,CoCrFeNiMo0.2,FCC,S,A,,,,T,25.0,,790,49,,,,,,,,,,,104
855,J106,10.3390/e21050448,CoCrFeNiMo0.2,FCC,S,A,,,,T,25.0,,799,47,,,,,,,,,,,104
856,J106,10.3390/e21050448,CoCrFeNiMo0.2,FCC,S,A,,,,T,25.0,,802,37,,,,,,,,,,,104
857,J106,10.3390/e21050448,CoCrFeNiMo0.2,FCC,S,A,,,,T,25.0,,823,36,,,,,,,,,,,104
858,J106,10.3390/e21050448,CoCrFeNiMo0.2,FCC,S,A,,,,T,25.0,,849,34,,,,,,,,,,,104
859,J106,10.3390/e21050448,CoCrFeNiMo0.2,FCC,S,A,,,,T,25.0,,895,32,,,,,,,,,,,104
860,J107,10.3390/ma12071136,Al19.9Li30Mg35Si10Ca5Y0.1,,M,AC,,,,C,25.0,556,,3,,,,,,changed to multiphase,,,1.7,,105
861,J107,10.3390/ma12071136,Al15Li35Mg35Ca10Si5,,M,AC,,,,C,25.0,418,,13,,,,,,changed to multiphase,,,1.57,,105
862,J107,10.3390/ma12071136,Al15Li38Mg48Ca1 Si1,,M,AC,,,,C,25.0,360,,9,,,,,,corrected the name; changed to multiphase,,,1.52,,105
863,J107,10.3390/ma12071136,Al15Li38Mg45Ca0.5Si1.5,,M,AC,,,,C,25.0,342,,44,,,,,,changed to multiphase,,,1.5,,105
864,J107,10.3390/ma12071136,Al15Li39Mg45Ca0.5Si0.5,,M,AC,,,,C,25.0,300,,63,,,,,,changed to multiphase,,,1.46,,105
865,J109,10.3390/e21030288,CoCrFeNiPd,FCC,S,AC,,,295,,,,,,,,,,,,,,,,106
866,J109,10.3390/e21030288,CoCrFeNiPdMn0.2,FCC + IM,M,AC,,,470,C,25.0,650,,50,,,,,,changed to multiphase,,,,,106
867,J109,10.3390/e21030288,CoCrFeNiPdMn0.4,FCC + IM,M,AC,,,380,C,25.0,650,,46,,,,,,changed to multiphase,,,,,106
868,J109,10.3390/e21030288,CoCrFeNiPdMn0.6,FCC + IM,M,AC,,,180,C,25.0,650,,42,,,,,,changed to multiphase,,,,,106
869,J109,10.3390/e21030288,CoCrFeNiPdMn0.8,FCC + IM,M,AC,,,160,C,25.0,650,,35,,,,,,changed to multiphase,,,,,106
870,J110,10.1016/j.scriptamat.2018.12.021,Al0.3CoCrFeMnNi,,,SPS,,,,,,,,,,,,,,Skipped,,,,,108
871,J111,10.1557/jmr.2019.40,CrFeNiTi0.2,BCC + FCC,M,AC,,,362.2,C,25.0,2297.94,,5.8,,,,,,,,,,,109
872,J111,10.1557/jmr.2019.40,CrFeNiTi0.3,BCC + FCC,M,AC,,,510.3,C,25.0,2364.63,,,,,,,,corrected elongations,,,,,109
873,J111,10.1557/jmr.2019.40,CrFeNiTi0.4,BCC,S,AC,,,600.3,C,25.0,2475.41,,6.5,,,,,,corrected elongations,,,,,109
874,J111,10.1557/jmr.2019.40,CrFeNiTi0.5,BCC,S,AC,,,709.6,C,25.0,2380.79,,,,,,,,corrected elongations,,,,,109
875,J111,10.1557/jmr.2019.40,CrFeNiTi0.6,BCC,S,AC,,,718.2,C,25.0,1923.15,,,,,,,,corrected elongations,,,,,109
876,J112,10.1557/jmr.2019.18,AlCuCrFeMn,sigma + FeMn,M,SPS,,,633,C,25.0,1010,,,,,,,,fixed strength,,,,,110
877,J112,10.1557/jmr.2019.18,AlCuCrFeMnW0.05,BCC + sigma + FeMn,M,SPS,,,680,C,25.0,1120,,,,,,,,fixed strength,,,,,110
878,J112,10.1557/jmr.2019.18,AlCuCrFeMnW0.1,BCC + sigma + FeMn,M,SPS,,,705,C,25.0,1250,,,,,,,,fixed strength,,,,,110
879,J112,10.1557/jmr.2019.18,AlCuCrFeMnW0.5,BCC + sigma + FeMn,M,SPS,,,780,C,25.0,1510,,,,,,,,fixed strength,,,,,110
880,J113,10.1557/jmr.2019.36,FeCoNiCuNb0.5,FCC + Laves,M,HR,,,,,,,,,,,,,,No data for FeCoNiCuNb0.5,,,,,111
881,J113,10.1557/jmr.2019.36,FeCoNiCuNb5,FCC + Laves,M,HR,,,,C,25.0,1498,,37.6,,,,,,fixed processing to HR,,,,,111
882,J113,10.1557/jmr.2019.36,FeCoNiCuNb7.5,FCC + Laves,M,HR,,,,C,25.0,1635,,31.7,,,,,,fixed processing to HR,,,,,111
883,J113,10.1557/jmr.2019.36,FeCoNiCuNb11.6,FCC + Laves,M,HR,,,,C,25.0,1703,,18.3,,,,,,fixed processing to HR,,,,,111
884,J113,10.1557/jmr.2019.36,FeCoNiCuNb15,FCC + Laves,M,HR,,,,C,25.0,1415,,12.6,,,,,,fixed processing to HR,,,,,111
885,J115,10.1016/j.msea.2019.01.088,Fe50Mn30Co10Cr10,FCC + BCP,M,AC,,,296 $\pm$ 24,,,,,,,,,,,No mechanical data,,,,,112
886,J115,10.1016/j.msea.2019.01.088,Fe49.7Mn30Co10Cr10B0.3,FCC + BCP,M,AC,,,282 $\pm$ 15,,,,,,,,,,,,,,,,112
887,J115,10.1016/j.msea.2019.01.088,Fe49.4Mn30Co10Cr10B0.6,FCC + BCP,M,AC,,,306 $\pm$ 24,,,,,,,,,,,,,,,,112
888,J115,10.1016/j.msea.2019.01.088,Fe48.3Mn30Co10Cr10B1.7,FCC + BCP,M,AC,,,452 $\pm$ 51,,,,,,,,,,,,,,,,112
889,J116,10.1016/j.msea.2019.01.083,Fe40.4Ni11.3Mn34.8Al7.5Cr6,,,AC,,,,T,25.0,159 $\pm$ 11,535 $\pm$ 21,,40.8 $\pm$ 3,,,,,,,,,,113
890,J116,10.1016/j.msea.2019.01.083,Fe40.4Ni11.3Mn34.8Al7.5Cr6,,M,A,,,,T,25.0,409 $\pm$ 12,584 $\pm$ 26,,10.5 $\pm$ 3,,,,,marked as multiphase,,,,,113
891,J116,10.1016/j.msea.2019.01.083,(Fe40.4Ni11.3Mn34.8Al7.5Cr6)98.9C1.1,,,AC,,,,T,25.0,355 $\pm$ 7,1174 $\pm$ 19,,49.5 $\pm$ 0.6,,,,,,,,,,113
892,J116,10.1016/j.msea.2019.01.083,(Fe40.4Ni11.3Mn34.8Al7.5Cr6)98.9C1.1,,M,A,,,,T,25.0,954 $\pm$ 49,978 $\pm$ 39,,2 $\pm$ 0.2,,,,,marked as multiphase,,,,,113
893,J117,10.1007/s00339-019-2484-1,TiZrHf,2HCP,M,AC,,,211,C,25.0,773,,17,,,,,,changed to two HCP phases,,,,,114
894,J117,10.1007/s00339-019-2484-1,TiZrHfSc,2HCP,M,AC,,,233,C,25.0,1001,,21.9,,,,,,changed to two HCP phases,,,,,114
895,J117,10.1007/s00339-019-2484-1,TiZrHfY,2HCP,M,AC,,,241,C,25.0,554,,17.7,,,,,,changed to two HCP phases,,,,,114
896,J117,10.1007/s00339-019-2484-1,TiZrHfScY,2HCP,M,AC,,,256,C,25.0,793,,15.7,,,,,,changed to two HCP phases,,,,,114
897,J118,10.1007/s10853-018-03196-8,NiCoFeCrGa,FCC + BCC,M,AC,,,,,,,,,,,,,,Induction Melting,,,,,115
898,J119,10.1007/s00339-019-2506-z,Co30Cr10Fe10Al18Ni32,FCC + BCC,M,AC,,,305.4 $\pm$ 6.1,C,25.0,1129.4,,16.7,,,,,,,,,,,116
899,J119,10.1007/s00339-019-2506-z,Co30Cr10Fe10Al18Ni31Mo1,FCC + BCC,M,AC,,,357.3 $\pm$ 9.4,C,25.0,1159.7,,18.2,,,,,,,,,,,116
900,J119,10.1007/s00339-019-2506-z,Co30Cr10Fe10Al18Ni30Mo2,FCC + BCC,M,AC,,,362.6 $\pm$ 8.2,C,25.0,1250.8,,14.7,,,,,,,,,,,116
901,J119,10.1007/s00339-019-2506-z,Co30Cr10Fe10Al18Ni29Mo3,FCC + BCC,M,AC,,,359.7 $\pm$ 4.7,C,25.0,1198.3,,14.5,,,,,,,,,,,116
902,J120,10.3390/met9030351,Fe24.1Co24.1Cr24.1Ni24.1Mo3.6,FCC + sigma,M,SPS,,,210,,,,,,,,,,,"No mechanical data, changed to multiphase",,,,,118
903,J121,10.1007/s11665-018-3837-1,CoCrCuFeNi,FCC,S,AC,,,,C,25.0,300,,50.2,,,,,,,,,,,119
904,J121,10.1007/s11665-018-3837-1,(CoCrCuFeNi)96V4,FCC + Cu phase,M,AC,,,,C,25.0,303,,50.2,,,,,,changed to multiphase,,,,,119
905,J121,10.1007/s11665-018-3837-1,(CoCrCuFeNi)92V8,FCC + Cu phase,M,AC,,,,C,25.0,307,,50.2,,,,,,changed to multiphase,,,,,119
906,J121,10.1007/s11665-018-3837-1,(CoCrCuFeNi)88V12,FCC + Sigma + Cu phase,M,AC,,,,C,25.0,330,,50.2,,,,,,changed to multiphase,,,,,119
907,J121,10.1007/s11665-018-3837-1,(CoCrCuFeNi)84V16,FCC + Sigma + Cu phase,M,AC,,,,C,25.0,616,,28,,,,,,changed to multiphase,,,,,119
908,J122,10.3390/e21020122,CoCrNiCuZn,FCC,S,SPS,500,,,C,25.0,,,,,,,,,,,,5.26,,120
909,J122,10.3390/e21020122,CoCrNiCuZn,FCC,S,SPS,500,,,C,25.0,,,,,,,,,,,,6.26,,120
910,J122,10.3390/e21020122,CoCrNiCuZn,FCC,S,SPS,500,,,C,25.0,,,,,,,,,,,,7.84,,120
911,J122,10.3390/e21020122,CoCrNiCuZn,FCC,S,SPS,500,,615,C,25.0,,,,,,,,,,,,7.89,,120
912,J123,10.3390/e21020114,HfNbTaTiZr,BCC,S,AC,500,,359,T,25.0,1155,1212,12.3,,59,,,,,,,,,121
913,J123,10.3390/e21020114,NbTaTiZr,BCC,S,AC,500,,358,T,25.0,1144,1205,6.4,,98,,,,,,,,,121
914,J123,10.3390/e21020114,NbTaTi,BCC,S,AC,500,,246,T,25.0,620,683,18.5,,143,,,,,,,,,121
915,J123,10.3390/e21020114,TaTiZr,BCC + ,M,AC,500,,485,T,25.0,,284,0,,157,,,,changed to multiphase,,,,,121
916,J123,10.3390/e21020114,NbTiZr,BCC,S,AC,500,,295,T,25.0,956,991,14.2,,88,,,,,,,,,121
917,J123,10.3390/e21020114,Nb1.5TaTiZr0.5,BCC + ,M,AC,500,,294,T,25.0,822,852,0.33,,127,,,,changed to multiphase,,,,,121
918,J123,10.3390/e21020114,Nb0.5TaTiZr1.5,BCC + ,M,AC,500,,489,T,25.0,,843,0,,93,,,,changed to multiphase,,,,,121
919,J124,10.1016/j.msea.2018.12.020,AgAlNbTiZn,,M,A,,,,,,,,,,,,,,changed to multiphase,,,4.75,,122
920,J124,10.1016/j.msea.2018.12.020,AgAlNbTiZn,,M,A,,,,,,,,,,,,,,changed to multiphase,,,5.78,,122
921,J124,10.1016/j.msea.2018.12.020,AgAlNbTiZn,,M,A,,,,,,,,,,,,,,changed to multiphase,,,5.79,,122
922,J124,10.1016/j.msea.2018.12.020,AgAlNbTiZn,,M,A,,,,,,,,,,,,,,changed to multiphase,,,5.51,,122
923,J124,10.1016/j.msea.2018.12.020,AgAlNbTiZn,,M,A,,,,,,,,,,,,,,changed to multiphase,,,,,122
924,J125,10.1155/2019/2157592,Fe31Mn28 Ni15Al24,,,AC,,,310,,,,,,,,,,,,,,,,123
925,J125,10.1155/2019/2157592,Fe31Mn28 Ni15Al24Ti0.8,,,AC,,,330,,,,,,,,,,,,,,,,123
926,J125,10.1155/2019/2157592,Fe31Mn28 Ni15Al24Ti3,,,AC,,,500,,,,,,,,,,,,,,,,123
927,J125,10.1155/2019/2157592,Fe31Mn28 Ni15Al24,,,A,,,340,,,,,,,,,,,,,,,,123
928,J125,10.1155/2019/2157592,Fe31Mn28 Ni15Al24Ti0.8,,,A,,,410,,,,,,,,,,,,,,,,123
929,J125,10.1155/2019/2157592,Fe31Mn28 Ni15Al24Ti3,,,A,,,495,,,,,,,,,,,,,,,,123
930,J125,10.1155/2019/2157592,Fe31Mn28 Ni15Al24,,,A,,,330,,,,,,,,,,,,,,,,123
931,J125,10.1155/2019/2157592,Fe31Mn28 Ni15Al24Ti0.8,,,A,,,330,,,,,,,,,,,,,,,,123
932,J125,10.1155/2019/2157592,Fe31Mn28 Ni15Al24Ti3,,,A,,,490,,,,,,,,,,,,,,,,123
933,J126,10.1080/00325899.2019.1576389,AlCrFeNiCoC,FCC + BCC,M,SPS,,,,,,,,,,,,,,,,,,,124
934,J128,10.1007/s11106-019-00012-z,CrFeNiCuTi,FCC + BCC,M,AC,,,,,,,,,,,,,,No Mechanical Data,,,,,125
935,J128,10.1007/s11106-019-00012-z,CrFeNiCuTi,FCC + BCC,M,HF + A,,,,,,,,,,,,,,,,,,,125
936,J128,10.1007/s11106-019-00012-z,CrFeNiCuTi,FCC + BCC,M,HF + A,,,,,,,,,,,,,,,,,,,125
937,J128,10.1007/s11106-019-00012-z,CrFeNiCuTi,FCC + BCC,M,HF + A,,,,,,,,,,,,,,,,,,,125
938,J129,10.1080/00325899.2018.1554834,CrMnFeCoNi,FCC  ,S,SPS,0.03,,435 $\pm$ 25,C,25.0,1100,,47,,,,,,,,,7.753,,126
939,J130,10.1007/s11665-018-3822-8,CuCrFeNiAl0.5,FCC,S,AC,,,226,,,,,,,,,,,,,,,,128
940,J130,10.1007/s11665-018-3822-8,CuCrFeNiAl0.5,FCC,S,CR + A,,,287,,,,,,,,,,,,,,,,128
941,J131,10.3390/e21010015,HfMoNbTaTiZr,BCC,S,AC,,,,C,25.0,1512,,12,,,,,,,,,,,129
942,J131,10.3390/e21010015,HfNbTaTiZr,BCC,S,AC,,,,C,25.0,929,,>50,,,,,,,,,,,129
943,J131,10.3390/e21010015,HfMoTaTiZr,BCC,S,AC,,,,C,25.0,1600,,4,,,,,,,,,,,129
944,J131,10.3390/e21010015,HfMoNbTiZr,BCC,S,AC,,,,C,25.0,1351,,20,,,,,,,,,,,129
945,J131,10.3390/e21010015,HfMoNbTaZr,BCC,S,AC,,,,C,25.0,1524,,16,,,,,,,,,,,129
946,J131,10.3390/e21010015,HfMoNbTaTi ,BCC,S,AC,,,,C,25.0,1369,,27,,,,,,,,,,,129
947,J131,10.3390/e21010015,HfMoNbTaTiZr,BCC,S,AC,,,,C,800.0,1007,,,,,,,,,,,,,129
948,J131,10.3390/e21010015,HfNbTaTiZr,BCC,S,AC,,,,C,800.0,535,,,,,,,,,,,,,129
949,J131,10.3390/e21010015,HfMoTaTiZr,BCC,S,AC,,,,C,800.0,1045,,,,,,,,,,,,,129
950,J131,10.3390/e21010015,HfMoNbTiZr,BCC,S,AC,,,,C,800.0,829,,,,,,,,,,,,,129
951,J131,10.3390/e21010015,HfMoNbTaZr,BCC,S,AC,,,,C,800.0,1005,,,,,,,,,,,,,129
952,J131,10.3390/e21010015,HfMoNbTaTi ,BCC,S,AC,,,,C,800.0,822,,,,,,,,,,,,,129
953,J131,10.3390/e21010015,HfMoNbTaTiZr,BCC,S,AC,,,,C,1000.0,814,,,,,,,,,,,,,129
954,J131,10.3390/e21010015,HfNbTaTiZr,BCC,S,AC,,,,C,1000.0,295,,,,,,,,,,,,,129
955,J131,10.3390/e21010015,HfMoTaTiZr,BCC,S,AC,,,,C,1000.0,855,,,,,,,,,,,,,129
956,J131,10.3390/e21010015,HfMoNbTiZr,BCC,S,AC,,,,C,1000.0,721,,,,,,,,,,,,,129
957,J131,10.3390/e21010015,HfMoNbTaZr,BCC,S,AC,,,,C,1000.0,927,,,,,,,,,,,,,129
958,J131,10.3390/e21010015,HfMoNbTaTi ,BCC,S,AC,,,,C,1000.0,778,,,,,,,,,,,,,129
959,J131,10.3390/e21010015,HfMoNbTaTiZr,BCC,S,AC,,,,C,1200.0,556,,,,,,,,,,,,,129
960,J131,10.3390/e21010015,HfNbTaTiZr,BCC,S,AC,,,,C,1200.0,92,,,,,,,,,,,,,129
961,J131,10.3390/e21010015,HfMoTaTiZr,BCC,S,AC,,,,C,1200.0,404,,,,,,,,,,,,,129
962,J131,10.3390/e21010015,HfMoNbTiZr,BCC,S,AC,,,,C,1200.0,301,,,,,,,,,,,,,129
963,J131,10.3390/e21010015,HfMoNbTaZr,BCC,S,AC,,,,C,1200.0,694,,,,,,,,,,,,,129
964,J131,10.3390/e21010015,HfMoNbTaTi ,BCC,S,AC,,,,C,1200.0,699,,,,,,,,,,,,,129
965,J131,10.3390/e21010015,HfMoNbTaZr,BCC,S,AC,,,,C,1400.0,278,,,,,,,,,,,,,129
966,J131,10.3390/e21010015,HfMoNbTaTi ,BCC,S,AC,,,,C,1400.0,367,,,,,,,,,,,,,129
967,J132,10.3390/coatings9010016,CoCrFeNi,FCC,S,VHP,0.0276,,,,,,,,,,,,,,,,,,130
968,J132,10.3390/coatings9010016,(CoCrFeNi)0.9(WC)0.1,FCC,S,VHP,0.0189,,475,,,,,,,,,,,,,,7.24 $\pm$ 0.02,,130
969,J132,10.3390/coatings9010016,(CoCrFeNi)0.7(WC)0.3,FCC,S,VHP,0.0182,,531,,,,,,,,,,,,,,8.39 $\pm$ 0.03,,130
970,J133,10.5755/j01.ms.25.3.19452,Al0.4FeCrCo1.5NiTi0.3,FCC + BCC,M,SPS,,,515 $\pm$ 16,C,25.0,2012 $\pm$ 20,,,17.52 $\pm$ 0.5,,,,,,,,,,131
971,J134,10.1007/s11661-018-4646-8,HfNbTaTiZr,BCC,S,AC,,,,T,25.0,1438,1218,5,,91.5,,,,Hot Isostatically Pressed,,,,,132
972,J134,10.1007/s11661-018-4646-8,HfNbTaTiZr,BCC,S,HIP + CR + A,,,,T,25.0,1159,1127,4.7,,99.2,,,,these are true strains but it's close enough ,,,,,132
973,J134,10.1007/s11661-018-4646-8,HfNbTaTiZr,BCC,S,HIP + CR + A,,,,T,25.0,1134,1134,7.6,,109.1,,,,,,,,,132
974,J134,10.1007/s11661-018-4646-8,HfNbTaTiZr,BCC,S,HIP + CR + A,,,,T,25.0,1094,1066,6,,105.3,,,,,,,,,132
975,J134,10.1007/s11661-018-4646-8,HfNbTaTiZr,BCC,S,HIP + CR + A,,,,T,25.0,1071,964,4.6,,91.6,,,,,,,,,132
976,J134,10.1007/s11661-018-4646-8,HfNbTaTiZr,BCC,S,HIP + CR + A,24.4,,,T,25.0,1107,977,13.9,,92.6,,,,,,,,,132
977,J134,10.1007/s11661-018-4646-8,HfNbTaTiZr,BCC,S,HIP + CR + A,31.3,,,T,25.0,1115,830,18.5,,92.6,,,,,,,,,132
978,J134,10.1007/s11661-018-4646-8,HfNbTaTiZr,BCC,S,HIP + CR + A,38.4,,,T,25.0,1114,935,12.2,,101.3,,,,,,,,,132
979,J134,10.1007/s11661-018-4646-8,HfNbTaTiZr,BCC,S,HIP + CR + A,50.1,,,,,,,,,,,,,,,,,,132
980,J134,10.1007/s11661-018-4646-8,HfNbTaTiZr,BCC,S,HIP + CR + A,21.9,,,,,,,,,,,,,,,,,,132
981,J134,10.1007/s11661-018-4646-8,HfNbTaTiZr,BCC,S,HIP + CR + A,75.5,,,,,,,,,,,,,,,,,,132
982,J135,10.1080/02670836.2018.1446267,AlNbTiZr,B2,S,AC,250,,422 $\pm$ 15,C,25.0,1509,,8.6,,,,,,,,,5.85,,133
983,J135,10.1080/02670836.2018.1446267,AlNbTiZr,B2 + Zr5Al3,M,A,,,418 $\pm$ 15,C,25.0,1579,,17.8,,,,,,,,,,,133
984,J135,10.1080/02670836.2018.1446267,HfMoTaTiZr,,,,,,541.6,C,25.0,1600,,4,,,,,,,14,,10.24,,133
985,J135,10.1080/02670836.2018.1446267,TaNbHfZrTi,,,,,,390.1,C,25.0,929,,>50,,,,,,,15,,9.94,,133
986,J135,10.1080/02670836.2018.1446267,AlNbTiV,,,,,,440,C,25.0,1020,,8.5,,,,,,,17,,5.59,,133
987,J135,10.1080/02670836.2018.1446267,AlNbTiVZr0.5,,,,,,,C,25.0,1480,,>50,,,,,,,18,,5.64,,133