,REFERENCE: tag,REFERENCE: doi,FORMULA,PROPERTY: Type of phases,PROPERTY: Single/Multiphase,PROPERTY: synthesis method,PROPERTY: grain size ($\mu$m),PROPERTY: ROM Density (g/cm$^3$),PROPERTY: HV,PROPERTY: Type of test,PROPERTY: Test temperature ($^\circ$C),PROPERTY: YS (MPa),PROPERTY: UTS (MPa),PROPERTY: Elongation (%),PROPERTY: Elongation plastic (%),PROPERTY: ROM Young modulus (GPa),PROPERTY: Exp. Young modulus (GPa),PROPERTY: O content (wppm),PROPERTY: N content (wppm),PROPERTY: C content (wppm),REFERENCE: comment,Internal Reference #,Original DOI,PROPERTY: Exp. Density (g/cm$^3$),Unnamed: 22,IDENTIFIER: Reference ID
792,J109,10.3390/e21030288,CoCrFeNiPdMn0.4,FCC + IM,M,AC,,,380,C,25.0,650,,46,,,,,,,changed to multiphase,,,,,104
793,J109,10.3390/e21030288,CoCrFeNiPdMn0.6,FCC + IM,M,AC,,,180,C,25.0,650,,42,,,,,,,changed to multiphase,,,,,104
794,J109,10.3390/e21030288,CoCrFeNiPdMn0.8,FCC + IM,M,AC,,,160,C,25.0,650,,35,,,,,,,changed to multiphase,,,,,104
795,J110,10.1016/j.scriptamat.2018.12.021,Al0.3CoCrFeMnNi,,,SPS,,,,,,,,,,,,,,,Skipped,,,,,106
796,J111,10.1557/jmr.2019.40,CrFeNiTi0.2,BCC + FCC,M,AC,,,362.2,C,25.0,2297.94,,5.8,,,,,,,,,,,,107
797,J111,10.1557/jmr.2019.40,CrFeNiTi0.3,BCC + FCC,M,AC,,,510.3,C,25.0,2364.63,,,,,,,,,corrected elongations,,,,,107
798,J111,10.1557/jmr.2019.40,CrFeNiTi0.4,BCC,S,AC,,,600.3,C,25.0,2475.41,,6.5,,,,,,,corrected elongations,,,,,107
799,J111,10.1557/jmr.2019.40,CrFeNiTi0.5,BCC,S,AC,,,709.6,C,25.0,2380.79,,,,,,,,,corrected elongations,,,,,107
800,J111,10.1557/jmr.2019.40,CrFeNiTi0.6,BCC,S,AC,,,718.2,C,25.0,1923.15,,,,,,,,,corrected elongations,,,,,107
801,J112,10.1557/jmr.2019.18,AlCuCrFeMn,sigma + FeMn,M,SPS,,,633,C,25.0,1010,,,,,,,,,fixed strength,,,,,108
802,J112,10.1557/jmr.2019.18,AlCuCrFeMnW0.05,BCC + sigma + FeMn,M,SPS,,,680,C,25.0,1120,,,,,,,,,fixed strength,,,,,108
803,J112,10.1557/jmr.2019.18,AlCuCrFeMnW0.1,BCC + sigma + FeMn,M,SPS,,,705,C,25.0,1250,,,,,,,,,fixed strength,,,,,108
804,J112,10.1557/jmr.2019.18,AlCuCrFeMnW0.5,BCC + sigma + FeMn,M,SPS,,,780,C,25.0,1510,,,,,,,,,fixed strength,,,,,108
805,J113,10.1557/jmr.2019.36,FeCoNiCuNb0.5,FCC + Laves,M,HR,,,,,,,,,,,,,,,No data for FeCoNiCuNb0.5,,,,,109
806,J113,10.1557/jmr.2019.36,FeCoNiCuNb5,FCC + Laves,M,HR,,,,C,25.0,1498,,37.6,,,,,,,fixed processing to HR,,,,,109
807,J113,10.1557/jmr.2019.36,FeCoNiCuNb7.5,FCC + Laves,M,HR,,,,C,25.0,1635,,31.7,,,,,,,fixed processing to HR,,,,,109
808,J113,10.1557/jmr.2019.36,FeCoNiCuNb11.6,FCC + Laves,M,HR,,,,C,25.0,1703,,18.3,,,,,,,fixed processing to HR,,,,,109
809,J113,10.1557/jmr.2019.36,FeCoNiCuNb15,FCC + Laves,M,HR,,,,C,25.0,1415,,12.6,,,,,,,fixed processing to HR,,,,,109
810,J115,10.1016/j.msea.2019.01.088,Fe50Mn30Co10Cr10,FCC + BCP,M,AC,,,296 $\pm$ 24,,,,,,,,,,,,No mechanical data,,,,,110
811,J115,10.1016/j.msea.2019.01.088,Fe49.7Mn30Co10Cr10B0.3,FCC + BCP,M,AC,,,282 $\pm$ 15,,,,,,,,,,,,,,,,,110
812,J115,10.1016/j.msea.2019.01.088,Fe49.4Mn30Co10Cr10B0.6,FCC + BCP,M,AC,,,306 $\pm$ 24,,,,,,,,,,,,,,,,,110
813,J115,10.1016/j.msea.2019.01.088,Fe48.3Mn30Co10Cr10B1.7,FCC + BCP,M,AC,,,452 $\pm$ 51,,,,,,,,,,,,,,,,,110
814,J116,10.1016/j.msea.2019.01.083,Fe40.4Ni11.3Mn34.8Al7.5Cr6,,,AC,,,,T,25.0,159 $\pm$ 11,535 $\pm$ 21,,40.8 $\pm$ 3,,,,,,,,,,,111
815,J116,10.1016/j.msea.2019.01.083,Fe40.4Ni11.3Mn34.8Al7.5Cr6,,M,A,,,,T,25.0,409 $\pm$ 12,584 $\pm$ 26,,10.5 $\pm$ 3,,,,,,marked as multiphase,,,,,111
816,J116,10.1016/j.msea.2019.01.083,(Fe40.4Ni11.3Mn34.8Al7.5Cr6)98.9C1.1,,,AC,,,,T,25.0,355 $\pm$ 7,1174 $\pm$ 19,,49.5 $\pm$ 0.6,,,,,,,,,,,111
817,J116,10.1016/j.msea.2019.01.083,(Fe40.4Ni11.3Mn34.8Al7.5Cr6)98.9C1.1,,M,A,,,,T,25.0,954 $\pm$ 49,978 $\pm$ 39,,2 $\pm$ 0.2,,,,,,marked as multiphase,,,,,111
818,J117,10.1007/s00339-019-2484-1,TiZrHf,2HCP,M,AC,,,211,C,25.0,773,,17,,,,,,,changed to two HCP phases,,,,,112
819,J117,10.1007/s00339-019-2484-1,TiZrHfSc,2HCP,M,AC,,,233,C,25.0,1001,,21.9,,,,,,,changed to two HCP phases,,,,,112
820,J117,10.1007/s00339-019-2484-1,TiZrHfY,2HCP,M,AC,,,241,C,25.0,554,,17.7,,,,,,,changed to two HCP phases,,,,,112
821,J117,10.1007/s00339-019-2484-1,TiZrHfScY,2HCP,M,AC,,,256,C,25.0,793,,15.7,,,,,,,changed to two HCP phases,,,,,112
822,J118,10.1007/s10853-018-03196-8,NiCoFeCrGa,FCC + BCC,M,AC,,,,,,,,,,,,,,,Induction Melting,,,,,113
823,J119,10.1007/s00339-019-2506-z,Co30Cr10Fe10Al18Ni32,FCC + BCC,M,AC,,,305.4 $\pm$ 6.1,C,25.0,1129.4,,16.7,,,,,,,,,,,,114
824,J119,10.1007/s00339-019-2506-z,Co30Cr10Fe10Al18Ni31Mo1,FCC + BCC,M,AC,,,357.3 $\pm$ 9.4,C,25.0,1159.7,,18.2,,,,,,,,,,,,114
825,J119,10.1007/s00339-019-2506-z,Co30Cr10Fe10Al18Ni30Mo2,FCC + BCC,M,AC,,,362.6 $\pm$ 8.2,C,25.0,1250.8,,14.7,,,,,,,,,,,,114
826,J119,10.1007/s00339-019-2506-z,Co30Cr10Fe10Al18Ni29Mo3,FCC + BCC,M,AC,,,359.7 $\pm$ 4.7,C,25.0,1198.3,,14.5,,,,,,,,,,,,114
827,J120,10.3390/met9030351,Fe24.1Co24.1Cr24.1Ni24.1Mo3.6,FCC + sigma,M,SPS,,,210,,,,,,,,,,,,"No mechanical data, changed to multiphase",,,,,116
828,J121,10.1007/s11665-018-3837-1,CoCrCuFeNi,FCC,S,AC,,,,C,25.0,300,,50.2,,,,,,,,,,,,117
829,J121,10.1007/s11665-018-3837-1,(CoCrCuFeNi)96V4,FCC + Cu phase,M,AC,,,,C,25.0,303,,50.2,,,,,,,changed to multiphase,,,,,117
830,J121,10.1007/s11665-018-3837-1,(CoCrCuFeNi)92V8,FCC + Cu phase,M,AC,,,,C,25.0,307,,50.2,,,,,,,changed to multiphase,,,,,117
831,J121,10.1007/s11665-018-3837-1,(CoCrCuFeNi)88V12,FCC + Sigma + Cu phase,M,AC,,,,C,25.0,330,,50.2,,,,,,,changed to multiphase,,,,,117
832,J121,10.1007/s11665-018-3837-1,(CoCrCuFeNi)84V16,FCC + Sigma + Cu phase,M,AC,,,,C,25.0,616,,28,,,,,,,changed to multiphase,,,,,117
833,J122,10.3390/e21020122,CoCrNiCuZn,FCC,S,SPS,500,,,C,25.0,,,,,,,,,,,,,5.26,,118
834,J122,10.3390/e21020122,CoCrNiCuZn,FCC,S,SPS,500,,,C,25.0,,,,,,,,,,,,,6.26,,118
835,J122,10.3390/e21020122,CoCrNiCuZn,FCC,S,SPS,500,,,C,25.0,,,,,,,,,,,,,7.84,,118
836,J122,10.3390/e21020122,CoCrNiCuZn,FCC,S,SPS,500,,615,C,25.0,,,,,,,,,,,,,7.89,,118
837,J123,10.3390/e21020114,HfNbTaTiZr,BCC,S,AC,500,,359,T,25.0,1155,1212,12.3,,,59,,,,,,,,,119
838,J123,10.3390/e21020114,NbTaTiZr,BCC,S,AC,500,,358,T,25.0,1144,1205,6.4,,,98,,,,,,,,,119
839,J123,10.3390/e21020114,NbTaTi,BCC,S,AC,500,,246,T,25.0,620,683,18.5,,,143,,,,,,,,,119
840,J123,10.3390/e21020114,TaTiZr,BCC + ,M,AC,500,,485,T,25.0,,284,0,,,157,,,,changed to multiphase,,,,,119
841,J123,10.3390/e21020114,NbTiZr,BCC,S,AC,500,,295,T,25.0,956,991,14.2,,,88,,,,,,,,,119
842,J123,10.3390/e21020114,Nb1.5TaTiZr0.5,BCC + ,M,AC,500,,294,T,25.0,822,852,0.33,,,127,,,,changed to multiphase,,,,,119
843,J123,10.3390/e21020114,Nb0.5TaTiZr1.5,BCC + ,M,AC,500,,489,T,25.0,,843,0,,,93,,,,changed to multiphase,,,,,119
844,J124,10.1016/j.msea.2018.12.020,AgAlNbTiZn,,M,A,,,,,,,,,,,,,,,changed to multiphase,,,4.75,,120
845,J124,10.1016/j.msea.2018.12.020,AgAlNbTiZn,,M,A,,,,,,,,,,,,,,,changed to multiphase,,,5.78,,120
846,J124,10.1016/j.msea.2018.12.020,AgAlNbTiZn,,M,A,,,,,,,,,,,,,,,changed to multiphase,,,5.79,,120
847,J124,10.1016/j.msea.2018.12.020,AgAlNbTiZn,,M,A,,,,,,,,,,,,,,,changed to multiphase,,,5.51,,120
848,J124,10.1016/j.msea.2018.12.020,AgAlNbTiZn,,M,A,,,,,,,,,,,,,,,changed to multiphase,,,,,120
849,J125,10.1155/2019/2157592,Fe31Mn28 Ni15Al24,,,AC,,,310,,,,,,,,,,,,,,,,,121
850,J125,10.1155/2019/2157592,Fe31Mn28 Ni15Al24Ti0.8,,,AC,,,330,,,,,,,,,,,,,,,,,121
851,J125,10.1155/2019/2157592,Fe31Mn28 Ni15Al24Ti3,,,AC,,,500,,,,,,,,,,,,,,,,,121
852,J125,10.1155/2019/2157592,Fe31Mn28 Ni15Al24,,,A,,,340,,,,,,,,,,,,,,,,,121
853,J125,10.1155/2019/2157592,Fe31Mn28 Ni15Al24Ti0.8,,,A,,,410,,,,,,,,,,,,,,,,,121
854,J125,10.1155/2019/2157592,Fe31Mn28 Ni15Al24Ti3,,,A,,,495,,,,,,,,,,,,,,,,,121
855,J125,10.1155/2019/2157592,Fe31Mn28 Ni15Al24,,,A,,,330,,,,,,,,,,,,,,,,,121
856,J125,10.1155/2019/2157592,Fe31Mn28 Ni15Al24Ti0.8,,,A,,,330,,,,,,,,,,,,,,,,,121
857,J125,10.1155/2019/2157592,Fe31Mn28 Ni15Al24Ti3,,,A,,,490,,,,,,,,,,,,,,,,,121
858,J126,10.1080/00325899.2019.1576389,AlCrFeNiCoC,FCC + BCC,M,SPS,,,,,,,,,,,,,,,,,,,,122
859,J128,10.1007/s11106-019-00012-z,CrFeNiCuTi,FCC + BCC,M,AC,,,,,,,,,,,,,,,No Mechanical Data,,,,,123
860,J128,10.1007/s11106-019-00012-z,CrFeNiCuTi,FCC + BCC,M,HF + A,,,,,,,,,,,,,,,,,,,,123
861,J128,10.1007/s11106-019-00012-z,CrFeNiCuTi,FCC + BCC,M,HF + A,,,,,,,,,,,,,,,,,,,,123
862,J128,10.1007/s11106-019-00012-z,CrFeNiCuTi,FCC + BCC,M,HF + A,,,,,,,,,,,,,,,,,,,,123
863,J129,10.1080/00325899.2018.1554834,CrMnFeCoNi,FCC  ,S,SPS,0.03,,435 $\pm$ 25,C,25.0,1100,,47,,,,,,,,,,7.753,,124
864,J130,10.1007/s11665-018-3822-8,CuCrFeNiAl0.5,FCC,S,AC,,,226,,,,,,,,,,,,,,,,,126
865,J130,10.1007/s11665-018-3822-8,CuCrFeNiAl0.5,FCC,S,CR + A,,,287,,,,,,,,,,,,,,,,,126
866,J131,10.3390/e21010015,HfMoNbTaTiZr,BCC,S,AC,,,,C,25.0,1512,,12,,,,,,,,,,,,127
867,J131,10.3390/e21010015,HfMoTaTiZr,BCC,S,AC,,,,C,25.0,1600,,4,,,,,,,,,,,,127
868,J131,10.3390/e21010015,HfMoNbTiZr,BCC,S,AC,,,,C,25.0,1351,,20,,,,,,,,,,,,127
869,J131,10.3390/e21010015,HfMoNbTaZr,BCC,S,AC,,,,C,25.0,1524,,16,,,,,,,,,,,,127
870,J131,10.3390/e21010015,HfMoNbTaTi ,BCC,S,AC,,,,C,25.0,1369,,27,,,,,,,,,,,,127
871,J131,10.3390/e21010015,HfMoNbTaTiZr,BCC,S,AC,,,,C,800.0,1007,,,,,,,,,,,,,,127
872,J131,10.3390/e21010015,HfMoTaTiZr,BCC,S,AC,,,,C,800.0,1045,,,,,,,,,,,,,,127
873,J131,10.3390/e21010015,HfMoNbTiZr,BCC,S,AC,,,,C,800.0,829,,,,,,,,,,,,,,127
874,J131,10.3390/e21010015,HfMoNbTaZr,BCC,S,AC,,,,C,800.0,1005,,,,,,,,,,,,,,127
875,J131,10.3390/e21010015,HfMoNbTaTi ,BCC,S,AC,,,,C,800.0,822,,,,,,,,,,,,,,127
876,J131,10.3390/e21010015,HfMoNbTaTiZr,BCC,S,AC,,,,C,1000.0,814,,,,,,,,,,,,,,127
877,J131,10.3390/e21010015,HfMoTaTiZr,BCC,S,AC,,,,C,1000.0,855,,,,,,,,,,,,,,127
878,J131,10.3390/e21010015,HfMoNbTiZr,BCC,S,AC,,,,C,1000.0,721,,,,,,,,,,,,,,127
879,J131,10.3390/e21010015,HfMoNbTaZr,BCC,S,AC,,,,C,1000.0,927,,,,,,,,,,,,,,127
880,J131,10.3390/e21010015,HfMoNbTaTi ,BCC,S,AC,,,,C,1000.0,778,,,,,,,,,,,,,,127
881,J131,10.3390/e21010015,HfMoNbTaTiZr,BCC,S,AC,,,,C,1200.0,556,,,,,,,,,,,,,,127
882,J131,10.3390/e21010015,HfMoTaTiZr,BCC,S,AC,,,,C,1200.0,404,,,,,,,,,,,,,,127
883,J131,10.3390/e21010015,HfMoNbTiZr,BCC,S,AC,,,,C,1200.0,301,,,,,,,,,,,,,,127
884,J131,10.3390/e21010015,HfMoNbTaZr,BCC,S,AC,,,,C,1200.0,694,,,,,,,,,,,,,,127
885,J131,10.3390/e21010015,HfMoNbTaTi ,BCC,S,AC,,,,C,1200.0,699,,,,,,,,,,,,,,127
886,J131,10.3390/e21010015,HfMoNbTaZr,BCC,S,AC,,,,C,1400.0,278,,,,,,,,,,,,,,127
887,J131,10.3390/e21010015,HfMoNbTaTi ,BCC,S,AC,,,,C,1400.0,367,,,,,,,,,,,,,,127
888,J132,10.3390/coatings9010016,CoCrFeNi,FCC,S,VHP,0.0276,,,,,,,,,,,,,,,,,,,128
889,J132,10.3390/coatings9010016,(CoCrFeNi)0.9(WC)0.1,FCC,S,VHP,0.0189,,475,,,,,,,,,,,,,,,7.24 $\pm$ 0.02,,128
890,J132,10.3390/coatings9010016,(CoCrFeNi)0.7(WC)0.3,FCC,S,VHP,0.0182,,531,,,,,,,,,,,,,,,8.39 $\pm$ 0.03,,128
891,J133,10.5755/j01.ms.25.3.19452,Al0.4FeCrCo1.5NiTi0.3,FCC + BCC,M,SPS,,,515 $\pm$ 16,C,25.0,2012 $\pm$ 20,,,17.52 $\pm$ 0.5,,,,,,,,,,,129
892,J134,10.1007/s11661-018-4646-8,HfNbTaTiZr,BCC,S,AC,,,,T,25.0,1438,1218,5,,,91.5,,,,Hot Isostatically Pressed,,,,,130
893,J134,10.1007/s11661-018-4646-8,HfNbTaTiZr,BCC,S,HIP + CR + A,,,,T,25.0,1159,1127,4.7,,,99.2,,,,these are true strains but it's close enough ,,,,,130
894,J134,10.1007/s11661-018-4646-8,HfNbTaTiZr,BCC,S,HIP + CR + A,,,,T,25.0,1134,1134,7.6,,,109.1,,,,,,,,,130
895,J134,10.1007/s11661-018-4646-8,HfNbTaTiZr,BCC,S,HIP + CR + A,,,,T,25.0,1094,1066,6,,,105.3,,,,,,,,,130
896,J134,10.1007/s11661-018-4646-8,HfNbTaTiZr,BCC,S,HIP + CR + A,,,,T,25.0,1071,964,4.6,,,91.6,,,,,,,,,130
897,J134,10.1007/s11661-018-4646-8,HfNbTaTiZr,BCC,S,HIP + CR + A,24.4,,,T,25.0,1107,977,13.9,,,92.6,,,,,,,,,130
898,J134,10.1007/s11661-018-4646-8,HfNbTaTiZr,BCC,S,HIP + CR + A,31.3,,,T,25.0,1115,830,18.5,,,92.6,,,,,,,,,130
899,J134,10.1007/s11661-018-4646-8,HfNbTaTiZr,BCC,S,HIP + CR + A,38.4,,,T,25.0,1114,935,12.2,,,101.3,,,,,,,,,130
900,J134,10.1007/s11661-018-4646-8,HfNbTaTiZr,BCC,S,HIP + CR + A,50.1,,,,,,,,,,,,,,,,,,,130
901,J134,10.1007/s11661-018-4646-8,HfNbTaTiZr,BCC,S,HIP + CR + A,21.9,,,,,,,,,,,,,,,,,,,130
902,J134,10.1007/s11661-018-4646-8,HfNbTaTiZr,BCC,S,HIP + CR + A,75.5,,,,,,,,,,,,,,,,,,,130
903,J135,10.1080/02670836.2018.1446267,AlNbTiZr,B2,S,AC,250,,422 $\pm$ 15,C,25.0,1509,,8.6,,,,,,,,,,5.85,,131
904,J135,10.1080/02670836.2018.1446267,AlNbTiZr,B2 + Zr5Al3,M,A,,,418 $\pm$ 15,C,25.0,1579,,17.8,,,,,,,,,,,,131
905,J135-18,10.1016/j.matlet.2015.08.099,AlNbTiVZr0.5,,,,,,,C,25.0,1480,,>50,,,,,,,,,,5.64,,132
906,J135-19,10.1179/1743284715Y.0000000032,AlNbTiZr,,,,,,539.6,C,25.0,1080,,5.9,,,,,,,,,,5.79,,133
907,J135-24,10.1016/j.actamat.2012.11.032,NbTiVZr,,,,,,335,C,25.0,1105,,>50,,,,,,,,,,6.52,,134
908,J135-24,10.1016/j.actamat.2012.11.032,CrNbTiZr,,,,,,418,C,25.0,1260,,6,,,,,,,,,,6.67,,134
909,new_ref_2,10.1002/maco.201709833,AlCrFeNiMo0.5,BCC+B2,M,AC,,,623.7,C,25.0,1914.1,4023.6,27.9,,,,,,,,,,,,265
910,new_ref_2,10.1002/maco.201709833,AlCrFeNiMo0.5Ti0.25,BCC+B2,M,AC,,,712,C,25.0,2161.7,3641.5,14.3,,,,,,,,,,,,265
911,new_ref_2,10.1002/maco.201709833,AlCrFeNiMo0.5Ti0.4,BCC+B2,M,AC,,,731.9,C,25.0,2185.1,3673.4,14.8,,,,,,,,,,,,265
912,new_ref_2,10.1002/maco.201709833,AlCrFeNiMo0.5Ti0.5,BCC+B2,M,AC,,,751.7,C,25.0,2228.7,3166.2,10.4,,,,,,,,,,,,265
913,new_ref_2,10.1002/maco.201709833,AlCrFeNiMo0.5Ti0.6,BCC+B2,M,AC,,,756.1,C,25.0,1314.5,1314.5,,,,,,,,,,,,,265
914,new_ref_2,10.1002/maco.201709833,AlCrFeNiMo0.5Ti0.75,BCC+B2,M,AC,,,766.2,C,25.0,618.8,618.8,,,,,,,,,,,,,265
915,new_ref_4,10.1016/j.matdes.2018.06.003,AlCrMoNb,Laves (C14)+A15,M,A,,,,,,,,,,,,,,,,,,,,266
916,new_ref_4,10.1016/j.matdes.2018.06.003,AlCrMoNb,Laves (C14)+A15,M,AC,,,,,,,,,,,,,,,,,,,,266
917,new_ref_4,10.1016/j.matdes.2018.06.003,AlHfNbTi,B2,S,A,,,,,,,,,,,,,,,,,,,,266
918,new_ref_4,10.1016/j.matdes.2018.06.003,AlHfNbTi,B2,S,AC,,,,,,,,,,,,,,,,,,,,266
919,new_ref_4,10.1016/j.matdes.2018.06.003,AlHfTaTi,B2,S,A,,,,,,,,,,,,,,,,,,,,266
920,new_ref_4,10.1016/j.matdes.2018.06.003,AlHfTaTi,B2,S,AC,,,,,,,,,,,,,,,,,,,,266
921,new_ref_4,10.1016/j.matdes.2018.06.003,AlMoNbTi,BCC+A15,M,A,,,,,,,,,,,,,,,,,,,,266
922,new_ref_4,10.1016/j.matdes.2018.06.003,AlMoNbTi,BCC,S,AC,,,509 $\pm$ 18,,,,,,,,,,,,,,,,,266
923,new_ref_4,10.1016/j.matdes.2018.06.003,AlNbTaTi,BCC+A15,M,A,,,,,,,,,,,,,,,,,,,,266
924,new_ref_4,10.1016/j.matdes.2018.06.003,AlNbTaTi,BCC,S,AC,,,458 $\pm$ 10,,,,,,,,,,,,,,,,,266
925,new_ref_4,10.1016/j.matdes.2018.06.003,CrMoTaTi,BCC,S,A,,,555 $\pm$ 24,,,,,,,,,,,,,,,,,266
926,new_ref_4,10.1016/j.matdes.2018.06.003,CrMoTaTi,BCC,S,AC,,,539 $\pm$ 32,,,,,,,,,,,,,,,,,266
927,new_ref_4,10.1016/j.matdes.2018.06.003,CrNbTaTi,BCC+Laves (C15),M,A,,,,,,,,,,,,,,,,,,,,266
928,new_ref_4,10.1016/j.matdes.2018.06.003,CrNbTaTi,BCC,S,AC,,,495 $\pm$ 26,,,,,,,,,,,,,,,,,266
929,new_ref_4,10.1016/j.matdes.2018.06.003,CrNbTiW,BCC+Laves (C15),M,A,,,630 $\pm$ 28,,,,,,,,,,,,,,,,,266
930,new_ref_4,10.1016/j.matdes.2018.06.003,CrNbTiW,BCC,S,AC,,,630 $\pm$ 24,,,,,,,,,,,,,,,,,266
931,new_ref_4,10.1016/j.matdes.2018.06.003,HfNbTaTi,BCC,S,A,,,280 $\pm$ 10,,,,,,,,,,,,,,,,,266
932,new_ref_4,10.1016/j.matdes.2018.06.003,HfNbTaTi,BCC,S,AC,,,270 $\pm$ 5,,,,,,,,,,,,,,,,,266
933,new_ref_4,10.1016/j.matdes.2018.06.003,MoNbTaTiW,BCC,S,A,,,482 $\pm$ 10,,,,,,,,,,,,,,,,,266
934,new_ref_4,10.1016/j.matdes.2018.06.003,MoNbTaTiW,BCC,S,AC,,,446 $\pm$ 32,,,,,,,,,,,,,,,,,266
935,new_ref_4,10.1016/j.matdes.2018.06.003,MoNbTaTi,BCC,S,A,,,407 $\pm$ 17,,,,,,,,,,,,,,,,,266
936,new_ref_4,10.1016/j.matdes.2018.06.003,MoNbTaTi,BCC,S,AC,,,431 $\pm$ 7,,,,,,,,,,,,,,,,,266