,REFERENCE: tag,REFERENCE: doi,FORMULA,PROPERTY: Type of phases,PROPERTY: Single/Multiphase,PROPERTY: synthesis method,PROPERTY: grain size ($\mu$m),PROPERTY: ROM Density (g/cm$^3$),PROPERTY: HV,PROPERTY: Type of test,PROPERTY: Test temperature ($^\circ$C),PROPERTY: YS (MPa),PROPERTY: UTS (MPa),PROPERTY: Elongation (%),PROPERTY: Elongation plastic (%),PROPERTY: Young modulus (GPa),PROPERTY: O content (wppm),PROPERTY: N content (wppm),PROPERTY: C content (wppm),REFERENCE: comment,"Internal Reference # (J4, J90)","J4, J90 Original DOI",PROPERTY: Exp. Density (g/cm$^3$),Unnamed: 22,IDENTIFIER: Reference ID
480,J51,10.1016/j.jallcom.2018.12.040,Co18Cr12.5Fe55Ni7Mo7.5,FCC + $\mu$,M,CR + A,5.4 $\pm$ 2.8,,,T,25.0,506 $\pm$ 7,933 $\pm$ 20,59.3 $\pm$ 3.4,,,,,,,,,,,172
481,J51,10.1016/j.jallcom.2018.12.040,Co17.5Cr12.5Fe55Ni10Mo5,FCC + $\mu$,M,CR + A,136.5 $\pm$ 10.8,,,T,25.0,231 $\pm$ 7,638 $\pm$ 13,87.2 $\pm$ 4.2,,,,,,,,,,,172
482,J51,10.1016/j.jallcom.2018.12.040,Co18Cr12.5Fe55Ni7Mo7.5,FCC + $\mu$,M,CR + A,120.6 $\pm$ 10.3,,,T,25.0,296 $\pm$ 6,693 $\pm$ 21,63.2 $\pm$ 5.2,,,,,,,,,,,172
483,J52,10.1016/j.jallcom.2018.11.181,CoCrFeMnNi,FCC,S,A,>300,,,,,,,,,,,,,,,,,,173
484,J52,10.1016/j.jallcom.2018.11.181,CoCrFeMnNi,FCC,S,SPS,4.2,,,,,,,,,,,,,correct processing to SPS,,,,,173
485,J52,10.1016/j.jallcom.2018.11.181,CoCrFeMnNi,FCC,S,SPS,1.3,,,,,,,,,,,,,,,,,,173
486,J53,10.1007/s10853-018-03280-z,NbTaWMo,BCC,S,SPS,,,,C,25.0,1217,,7.6,3.8,,,,,both strains recorded,,,,,174
487,J53,10.1007/s10853-018-03280-z,NbTaWMoSi0.25,BCC + Silicide,M,SPS,,,,C,25.0,1826,,16.7,10.5,,,,,both strains recorded,,,,,174
488,J53,10.1007/s10853-018-03280-z,NbTaWMoSi0.5,BCC + Silicide,M,SPS,,,,C,25.0,1883,,11,5.8,,,,,both strains recorded,,,,,174
489,J53,10.1007/s10853-018-03280-z,NbTaWMoSi0.75,BCC + Silicide,M,SPS,,,,C,25.0,2483,,6.3,1.6,,,,,both strains recorded,,,,,174
490,J53,10.1007/s10853-018-03280-z,NbTaWMoSi0.25,BCC + Silicide,M,SPS,,,,C,1200.0,1071,,22.5,13.11,,,,,Added values for NbTaWMoSi0.25 compression values at 1200 C; both strains recorded,,,,,174
491,J54,10.1007/s11665-019-04003-4,FeCrCuMnNi,FCC + BCC,M,AC,,,,T,25.0,615,950,14,,,,,,,,,,,175
492,J54,10.1007/s11665-019-04003-4,FeCrCuMnNi,FCC + BCC,M,A,,,,,,,,,,,,,,,,,,,175
493,J54,10.1007/s11665-019-04003-4,FeCrCuMnNi,FCC + BCC,M,A,,,,,,,,,,,,,,,,,,,175
494,J54,10.1007/s11665-019-04003-4,FeCrCuMnNi,FCC + BCC,M,A,,,,,,,,,,,,,,,,,,,175
495,J54,10.1007/s11665-019-04003-4,FeCrCuMnNi,FCC + BCC + $\sigma$,M,A,,,,,,,,,,,,,,,,,,,175
496,J54,10.1007/s11665-019-04003-4,FeCrCuMnNi,FCC + BCC + $\sigma$,M,A,,,,,,,,,,,,,,,,,,,175
497,J54,10.1007/s11665-019-04003-4,FeCrCuMnNi,FCC + BCC + $\sigma$,M,A,,,,,,,,,,,,,,,,,,,175
498,J54,10.1007/s11665-019-04003-4,FeCrCuMnNi,FCC + BCC + $\sigma$,M,A,,,,,,,,,,,,,,,,,,,175
499,J54,10.1007/s11665-019-04003-4,FeCrCuMnNi,FCC + BCC,M,A,,,,,,,,,,,,,,,,,,,175
500,J56,10.1016/j.jallcom.2018.11.111,MoNbRe0.5W,BCC,S,AC,,,473,C,25.0,896 $\pm$ 13,,10.4,7.08,,,,,added hardness vickers; changed fracture strain to total strain from stress strain plot,,,,,176
501,J56,10.1016/j.jallcom.2018.11.111,MoNbRe0.5W(TaC)0.2,BCC + MC,M,AC,,,510,C,25.0,1074 $\pm$ 11,,12.1,8.33,,,,,added hardness vickers; changed fracture strain to total strain from stress strain plot,,,,,176
502,J56,10.1016/j.jallcom.2018.11.111,MoNbRe0.5W(TaC)0.4,BCC + MC,M,AC,,,558,C,25.0,1144 $\pm$ 33,,12.7,8.81,,,,,added hardness vickers; changed fracture strain to total strain from stress strain plot,,,,,176
503,J56,10.1016/j.jallcom.2018.11.111,MoNbRe0.5W(TaC)0.5,BCC + MC,M,AC,,,583,C,25.0,1202 $\pm$ 15,,14.2,10.25,,,,,added hardness vickers; changed fracture strain to total strain from stress strain plot,,,,,176
504,J56,10.1016/j.jallcom.2018.11.111,MoNbRe0.5W(TaC)0.6,BCC + MC,M,AC,,,615,C,25.0,1241 $\pm$ 26,,13.8,9.64,,,,,added hardness vickers; changed fracture strain to total strain from stress strain plot,,,,,176
505,J58,10.3390/e21020169,Al10Co25Cr8Fe15Ni36Ti6,FCC,S,A,,,,T,23.0,520 $\pm$ 19,696 $\pm$ 33,49,,,,,,reported total elongation ,,,,,177
506,J58,10.3390/e21020169,Al10Co25Cr8Fe15Ni36Ti6,FCC,S,A,,,,T,600.0,470 $\pm$ 8,561 $\pm$ 50,11 $\pm$ 8,,,,,,,,,,,177
507,J58,10.3390/e21020169,Al10Co25Cr8Fe15Ni36Ti6,FCC,S,A,,,,T,700.0,461 $\pm$ 10,560 $\pm$ 27,9 $\pm$ 4,,,,,,,,,,,177
508,J58,10.3390/e21020169,Al10Co25Cr8Fe15Ni36Ti6,FCC,S,A,,,,T,800.0,445 $\pm$ 2,536 $\pm$ 7,6 $\pm$ 4,,,,,,,,,,,177
509,J58,10.3390/e21020169,Al10Co25Cr8Fe15Ni36Ti6,FCC,S,A,,,,T,900.0,219 $\pm$ 6,312 $\pm$ 6,8 $\pm$ 6,,,,,,,,,,,177
510,J58,10.3390/e21020169,Al10Co25Cr8Fe15Ni36Ti6,FCC,S,DC + A,,,,T,23.0,627 $\pm$ 9,1197 $\pm$ 6,27 $\pm$ 1,,,,,,Directional Casting,,,,,177
511,J58,10.3390/e21020169,Al10Co25Cr8Fe15Ni36Ti6,FCC,S,DC + A,,,,T,600.0,594 $\pm$ 3,1006 $\pm$ 16,12 $\pm$ 2,,,,,,Directional Casting,,,,,177
512,J58,10.3390/e21020169,Al10Co25Cr8Fe15Ni36Ti6,FCC,S,DC + A,,,,T,700.0,547 $\pm$ 42,840 $\pm$ 1,17 $\pm$ 5,,,,,,Directional Casting,,,,,177
513,J58,10.3390/e21020169,Al10Co25Cr8Fe15Ni36Ti6,FCC,S,DC + A,,,,T,800.0,399 $\pm$ 1,575 $\pm$ 7,20 $\pm$ 4,,,,,,Directional Casting,,,,,177
514,J58,10.3390/e21020169,Al10Co25Cr8Fe15Ni36Ti6,FCC,S,DC + A,,,,T,900.0,243 $\pm$ 2,319 $\pm$ 1,34 $\pm$ 1,,,,,,Directional Casting,,,,,177
515,J59,10.1016/j.msea.2018.12.077,V10Cr15Mn5Fe35Co10Ni25,FCC,S,CR + A,8.7,,,T,25.0,401,717,49,,,,,,Added data from Fig 3; total elongation recorded,,,,,178
516,J59,10.1016/j.msea.2018.12.077,V10Cr15Mn5Fe35Co10Ni25,FCC,S,CR + A,10.4,,,T,25.0,350,690,50,,,,,,Added data from Fig 3; total elongation recorded,,,,,178
517,J59,10.1016/j.msea.2018.12.077,V10Cr15Mn5Fe35Co10Ni25,FCC,S,CR + A,11.2,,,T,25.0,312,660,51,,,,,,Added data from Fig 3; total elongation recorded,,,,,178
518,J59,10.1016/j.msea.2018.12.077,V10Cr15Mn5Fe35Co10Ni25,FCC,S,CR + A,48.2,,,T,25.0,240,610,53,,,,,,Added data from Fig 3; total elongation recorded,,,,,178
519,J59,10.1016/j.msea.2018.12.077,V10Cr15Mn5Fe35Co10Ni25,FCC,S,CR + A,82.7,,,T,25.0,210,593,52,,,,,,,,,,,178
520,J60,10.1016/j.jallcom.2019.07.195,CoCrFeNiMn,2FCC,M,SPS,,,410.9,T,25.0,,,,,184,,,,Can someone re-review this article. I'm not completely confident in my reporting CHECKED (CF) added hardness in GPA; flexuarl strength isn't yield strength,,,7.5,,180
521,J61,10.1016/j.jallcom.2019.07.100,Al2CoCrFeNi,BCC + B2,M,AC,80.67,,581.7,C,25.0,1241,,9.98,,,,,,"Misplaced Elongation values into Young's Modulus, amended",,,,,181
522,J61,10.1016/j.jallcom.2019.07.100,Al1.8CoCrFeNiTi0.2,BCC + B2,M,AC,66.93,,605.5,C,25.0,1324,,10.02,,,,,,,,,,,181
523,J61,10.1016/j.jallcom.2019.07.100,Al1.5CoCrFeNiTi0.5,BCC + B2,M,AC,56.27,,641.7,C,25.0,1566,,11.85,,,,,,,,,,,181
524,J61,10.1016/j.jallcom.2019.07.100,Al1.2CoCrFeNiTi0.8,BCC + B2,M,AC,49.95,,639.6,C,25.0,1503,,7.73,,,,,,,,,,,181
525,J61,10.1016/j.jallcom.2019.07.100,AlCoCrFeNiTi,BCC + B2 + Laves,M,AC,30.49,,703,C,25.0,1448,,6.18,,,,,,,,,,,181
526,J61,10.1016/j.jallcom.2019.07.100,Al0.8CoCrFeNiTi1.2,BCC + B2 + Laves,M,AC,22.03,,856.9,C,25.0,1272,,3.15,,,,,,,,,,,181
527,J61,10.1016/j.jallcom.2019.07.100,CoCrCuFeNiTi0.8,,,,,,,C,25.0,1042,,2.11,,,,,,"Extracted Engineering Values from Table 4, comes from multiple other references",,,,,181
528,J61,10.1016/j.jallcom.2019.07.100,CoCrCuFeNiTi1.0,,,,,,,C,25.0,1272,,0,,,,,,"Extracted Engineering Values from Table 4, comes from multiple other references",,,,,181
529,J61,10.1016/j.jallcom.2019.07.100,AlC0.1CoCrFeNi,,,,,,,C,25.0,957,,10.52,,,,,,"Extracted Engineering Values from Table 4, comes from multiple other references",,,,,181
530,J61,10.1016/j.jallcom.2019.07.100,AlC0.2CoCrFeNi,,,,,,,C,25.0,906,,8.68,,,,,,"Extracted Engineering Values from Table 4, comes from multiple other references",,,,,181
531,J61,10.1016/j.jallcom.2019.07.100,AlC0.3CoCrFeNi,,,,,,,C,25.0,867,,7.82,,,,,,"Extracted Engineering Values from Table 4, comes from multiple other references",,,,,181
532,J61,10.1016/j.jallcom.2019.07.100,AlC0.4CoCrFeNi,,,,,,,C,25.0,1056,,6.67,,,,,,"Extracted Engineering Values from Table 4, comes from multiple other references",,,,,181
533,J61,10.1016/j.jallcom.2019.07.100,AlC0.5CoCrFeNi,,,,,,,C,25.0,1060,,5.6,,,,,,"Extracted Engineering Values from Table 4, comes from multiple other references",,,,,181
534,J61,10.1016/j.jallcom.2019.07.100,AlCoCrFeNi,,,,,,,C,25.0,1300,,24.2,,,,,,"Extracted Engineering Values from Table 4, comes from multiple other references",,,,,181
535,J61,10.1016/j.jallcom.2019.07.100,Al0.8CoCrFeNiTi0.2,,,,,,,C,25.0,968,,30.1,,,,,,"Extracted Engineering Values from Table 4, comes from multiple other references",,,,,181
536,J61,10.1016/j.jallcom.2019.07.100,Al0.5CoCrFeNiTi0.5,,,,,,,C,25.0,1100,,27.5,,,,,,"Extracted Engineering Values from Table 4, comes from multiple other references",,,,,181
537,J61,10.1016/j.jallcom.2019.07.100,AlCoCuFeNi,,,,,,,C,25.0,1060,,19.1,,,,,,"Extracted Engineering Values from Table 4, comes from multiple other references",,,,,181
538,J61,10.1016/j.jallcom.2019.07.100,AlCoCuFeNiCr,,,,,,,C,25.0,1285,,24.6,,,,,,"Extracted Engineering Values from Table 4, comes from multiple other references",,,,,181
539,J61,10.1016/j.jallcom.2019.07.100,AlCoCuFeNiTi,,,,,,,C,25.0,1612,,12.8,,,,,,"Extracted Engineering Values from Table 4, comes from multiple other references",,,,,181
540,J61,10.1016/j.jallcom.2019.07.100,AlCoCuFeNiCrTi,,,,,,,C,25.0,1523,,8.1,,,,,,"Extracted Engineering Values from Table 4, comes from multiple other references",,,,,181
541,J61,10.1016/j.jallcom.2019.07.100,AlCrFeNi,,,,,,,C,25.0,1271,,14,,,,,,"Extracted Engineering Values from Table 4, comes from multiple other references",,,,,181
542,J61,10.1016/j.jallcom.2019.07.100,AlCo0.25CrFeNi,,,,,,,C,25.0,1363,,19,,,,,,"Extracted Engineering Values from Table 4, comes from multiple other references",,,,,181
543,J61,10.1016/j.jallcom.2019.07.100,AlCo0.5CrFeNi,,,,,,,C,25.0,1349,,20,,,,,,"Extracted Engineering Values from Table 4, comes from multiple other references",,,,,181
544,J61,10.1016/j.jallcom.2019.07.100,AlCo0.75CrFeNi,,,,,,,C,25.0,1331,,20,,,,,,"Extracted Engineering Values from Table 4, comes from multiple other references",,,,,181
545,J61,10.1016/j.jallcom.2019.07.100,AlCoCrFeNi,,,,,,,C,25.0,1313,,19,,,,,,"Extracted Engineering Values from Table 4, comes from multiple other references",,,,,181
546,J61,10.1016/j.jallcom.2019.07.100,CoCrFeMn,,,,,,,C,25.0,338,,4.3,,,,,,"Extracted Engineering Values from Table 4, comes from multiple other references",,,,,181
547,J61,10.1016/j.jallcom.2019.07.100,AlCoCrFeNiTi0.5,,,,,,,C,25.0,2260,,23.3,,,,,,"Extracted Engineering Values from Table 4, comes from multiple other references",,,,,181
548,J61,10.1016/j.jallcom.2019.07.100,AlCoCrFeNiTi,,,,,,,C,25.0,1860,,8.8,,,,,,"Extracted Engineering Values from Table 4, comes from multiple other references",,,,,181
549,J61,10.1016/j.jallcom.2019.07.100,AlCoCrFeNiTi1.5,,,,,,,C,25.0,2220,,5.3,,,,,,"Extracted Engineering Values from Table 4, comes from multiple other references",,,,,181
550,J63,10.1016/j.jallcom.2019.06.301,AlCoCrFeNi,FCC + BCC,M,GA+A,,,,,,,,,,,,,,Gas Atomization,,,,,182
551,J63,10.1016/j.jallcom.2019.06.301,AlCoCrFeNi,FCC + BCC,M,GA+A,,,,,,,,,,,,,,Gas Atomization,,,,,182
552,J63,10.1016/j.jallcom.2019.06.301,AlCoCrFeNi,FCC + BCC,M,GA+A,,,,,,,,,,,,,,Gas Atomization,,,,,182
553,J63,10.1016/j.jallcom.2019.06.301,AlCoCrFeNi,FCC + BCC,M,GA+A,,,,,,,,,,,,,,Gas Atomization,,,,,182
554,J63,10.1016/j.jallcom.2019.06.301,AlCoCrFeNi,FCC + BCC,M,GA+A,,,,,,,,,,,,,,Gas Atomization,,,,,182
555,J64,10.1016/j.jallcom.2019.06.138,HfNbTaTiZr,BCC + Laves,M,AC,,,,C,25.0,929,,>50,,,,,,Added > symbol to values to corresponding values according to Table 3; comes from a different reference,,,,,183
556,J64,10.1016/j.jallcom.2019.06.138,HfNbTaTiZrW,BCC + Laves,M,AC,29.4,,,C,25.0,1550,,26.3,,,,,,,,,,,183
557,J64,10.1016/j.jallcom.2019.06.138,HfNbTaTiZrMoW,BCC + Laves,M,AC,31.7,,,C,25.0,1637,,15.5,,,,,,,,,,,183
558,J64,10.1016/j.jallcom.2019.06.138,HfNbTaTiZr,BCC + Laves,M,AC,,,,C,800.0,535,,>40,,,,,,comes from a different reference,,,,,183
559,J64,10.1016/j.jallcom.2019.06.138,HfNbTaTiZrW,BCC + Laves,M,AC,29.4,,,C,800.0,577,,>35,,,,,,,,,,,183
560,J64,10.1016/j.jallcom.2019.06.138,HfNbTaTiZrMoW,BCC + Laves,M,AC,31.7,,,C,800.0,1065,,>35,,,,,,,,,,,183
561,J64,10.1016/j.jallcom.2019.06.138,HfNbTaTiZr,BCC + Laves,M,AC,,,,C,1000.0,295,,>50,,,,,,comes from a different reference,,,,,183
562,J64,10.1016/j.jallcom.2019.06.138,HfNbTaTiZrW,BCC + Laves,M,AC,29.4,,,C,1000.0,409,,>35,,,,,,,,,,,183
563,J64,10.1016/j.jallcom.2019.06.138,HfNbTaTiZrMoW,BCC + Laves,M,AC,31.7,,,C,1000.0,736,,>35,,,,,,,,,,,183
564,J64,10.1016/j.jallcom.2019.06.138,HfNbTaTiZr,BCC + Laves,M,AC,,,,C,1200.0,92,,>50,,,,,,comes from a different reference,,,,,183
565,J64,10.1016/j.jallcom.2019.06.138,HfNbTaTiZrW,BCC + Laves,M,AC,29.4,,,C,1200.0,345,,>35,,,,,,,,,,,183
566,J64,10.1016/j.jallcom.2019.06.138,HfNbTaTiZrMoW,BCC + Laves,M,AC,31.7,,,C,1200.0,703,,>35,,,,,,,,,,,183
567,J65,10.1007/s12598-019-01310-6,NbZrTi,BCC,S,AC,,,372,C,25.0,1223,,48,,,,,,,,,,,184
568,J65,10.1007/s12598-019-01310-6,NbHfZrTi,BCC,S,AC,,,351,C,25.0,1000,,52,,,,,,,,,,,184
569,J65,10.1007/s12598-019-01310-6,NbZrTi,BCC,S,A,300,,,,,,,,,,,,,,,,,,184
570,J65,10.1007/s12598-019-01310-6,NbHfZrTi,BCC,S,A,50,,,,,,,,,,,,,,,,,,184
571,J65,10.1007/s12598-019-01310-6,NbZrTi,BCC,S,AC,,,,C,1073.0,462,,51,,,,,,Added total elongation values according to Fig 6,,,,,184
572,J65,10.1007/s12598-019-01310-6,NbHfZrTi,BCC,S,AC,,,,C,1073.0,303,,51,,,,,,Added total elongation values according to Fig 6,,,,,184
573,J65,10.1007/s12598-019-01310-6,NbZrTi,BCC,S,AC,,,,C,1273.0,218,,51,,,,,,Added total elongation values according to Fig 6,,,,,184
574,J65,10.1007/s12598-019-01310-6,NbHfZrTi,BCC,S,AC,,,,C,1273.0,154,,51,,,,,,Added total elongation values according to Fig 6,,,,,184
575,J66,10.1016/j.intermet.2019.106550,CoCrFeNi,FCC,S,AC,,,168.9,C,25.0,163,,80,,,,,,,,,,,185
576,J66,10.1016/j.intermet.2019.106550,CoCrFeNiW0.2,FCC,S,AC,,,244,C,25.0,335,,52,,,,,,,,,,,185
577,J66,10.1016/j.intermet.2019.106550,CoCrFeNiW0.5,FCC + $\mu$,M,AC,,,357.9,C,25.0,556,,35.6,,,,,,,,,,,185
578,J67,10.1007/s40195-019-00935-x,MoNbFeCrV,BCC + Laves,M,AC,,,826,C,25.0,2663,,2.7,,,,,,added hardness vickers from text,,,,,186
579,J67,10.1007/s40195-019-00935-x,MoNbFeCrTi,BCC + Laves,M,AC,,,792,C,25.0,1647,,0.9,,,,,,added hardness vickers from text,,,,,186
580,J67,10.1007/s40195-019-00935-x,MoNbFeVTi,BCC + B2,M,AC,,,699,C,25.0,1707,,1.7,,,,,,added hardness vickers from text,,,,,186
581,J68,10.1016/j.matchar.2019.109792,Al0.3Cu0.5FeCrNi2,FCC,S,CR + A,,,107,T,62.0,169,,98,,16.6,,,,,,,,,187
582,J68,10.1016/j.matchar.2019.109792,Al0.3Cu0.5FeCrNi2,FCC + L12,M,CR + A,,,209,T,350.0,642,,73,,47,,,,,,,,,187
583,J68,10.1016/j.matchar.2019.109792,Al0.3Cu0.5FeCrNi2,FCC + L12 + M23C6,M,CR + A,,,321,T,535.0,904,,39,,35.2,,,,,,,,,187
584,J68,10.1016/j.matchar.2019.109792,Al0.3Cu0.5FeCrNi2,FCC + L12 + M23C6,M,CR + A,,,159,T,255.0,584,,88,,51.4,,,,,,,,,187
585,J69,10.1016/j.jallcom.2019.05.322,HfNbTaTiZr,BCC,S,CR + A,60,,,,20.0,,,,,88.9,,,,Paper focused on Young's Modulus,,,,,188
586,J69,10.1016/j.jallcom.2019.05.322,HfNbTaTiZr,BCC,S,CR + A,60,,,,40.0,,,,,88.6,,,,,,,,,188
587,J69,10.1016/j.jallcom.2019.05.322,HfNbTaTiZr,BCC,S,CR + A,60,,,,60.0,,,,,88.4,,,,,,,,,188
588,J69,10.1016/j.jallcom.2019.05.322,HfNbTaTiZr,BCC,S,CR + A,60,,,,80.0,,,,,88.1,,,,,,,,,188
589,J69,10.1016/j.jallcom.2019.05.322,HfNbTaTiZr,BCC,S,CR + A,60,,,,100.0,,,,,87.9,,,,,,,,,188
590,J69,10.1016/j.jallcom.2019.05.322,HfNbTaTiZr,BCC,S,CR + A,60,,,,120.0,,,,,87.7,,,,,,,,,188
591,J69,10.1016/j.jallcom.2019.05.322,HfNbTaTiZr,BCC,S,CR + A,60,,,,140.0,,,,,87.5,,,,,,,,,188
592,J69,10.1016/j.jallcom.2019.05.322,HfNbTaTiZr,BCC,S,CR + A,60,,,,160.0,,,,,87.3,,,,,,,,,188
593,J69,10.1016/j.jallcom.2019.05.322,HfNbTaTiZr,BCC,S,CR + A,60,,,,180.0,,,,,87.1,,,,,,,,,188
594,J69,10.1016/j.jallcom.2019.05.322,HfNbTaTiZr,BCC,S,CR + A,60,,,,200.0,,,,,86.9,,,,,,,,,188
595,J69,10.1016/j.jallcom.2019.05.322,HfNbTaTiZr,BCC,S,CR + A,60,,,,220.0,,,,,86.7,,,,,,,,,188
596,J69,10.1016/j.jallcom.2019.05.322,HfNbTaTiZr,BCC,S,CR + A,60,,,,240.0,,,,,86.5,,,,,,,,,188
597,J69,10.1016/j.jallcom.2019.05.322,HfNbTaTiZr,BCC,S,CR + A,60,,,,260.0,,,,,86.3,,,,,,,,,188
598,J69,10.1016/j.jallcom.2019.05.322,HfNbTaTiZr,BCC,S,CR + A,60,,,,280.0,,,,,86.1,,,,,,,,,188
599,J69,10.1016/j.jallcom.2019.05.322,HfNbTaTiZr,BCC,S,CR + A,60,,,,300.0,,,,,85.8,,,,,,,,,188
600,J69,10.1016/j.jallcom.2019.05.322,HfNbTaTiZr,BCC,S,CR + A,60,,,,320.0,,,,,85.5,,,,,,,,,188
601,J69,10.1016/j.jallcom.2019.05.322,HfNbTaTiZr,BCC,S,CR + A,60,,,,340.0,,,,,85.2,,,,,,,,,188
602,J69,10.1016/j.jallcom.2019.05.322,HfNbTaTiZr,BCC,S,CR + A,60,,,,360.0,,,,,84.9,,,,,,,,,188
603,J69,10.1016/j.jallcom.2019.05.322,HfNbTaTiZr,BCC,S,CR + A,60,,,,380.0,,,,,84.5,,,,,,,,,188
604,J69,10.1016/j.jallcom.2019.05.322,HfNbTaTiZr,BCC,S,CR + A,60,,,,400.0,,,,,84.2,,,,,,,,,188
605,J69,10.1016/j.jallcom.2019.05.322,HfNbTaTiZr,BCC,S,CR + A,60,,,,420.0,,,,,83.8,,,,,,,,,188
606,J69,10.1016/j.jallcom.2019.05.322,HfNbTaTiZr,BCC,S,CR + A,60,,,,440.0,,,,,83.5,,,,,,,,,188
607,J69,10.1016/j.jallcom.2019.05.322,HfNbTaTiZr,BCC,S,CR + A,60,,,,460.0,,,,,83.1,,,,,,,,,188
608,J69,10.1016/j.jallcom.2019.05.322,HfNbTaTiZr,BCC,S,CR + A,60,,,,480.0,,,,,82.7,,,,,,,,,188
609,J69,10.1016/j.jallcom.2019.05.322,HfNbTaTiZr,BCC,S,CR + A,60,,,,500.0,,,,,82.3,,,,,,,,,188
610,J69,10.1016/j.jallcom.2019.05.322,HfNbTaTiZr,BCC,S,CR + A,60,,,,520.0,,,,,81.9,,,,,,,,,188
611,J69,10.1016/j.jallcom.2019.05.322,HfNbTaTiZr,BCC,S,CR + A,60,,,,540.0,,,,,81.6,,,,,,,,,188
612,J69,10.1016/j.jallcom.2019.05.322,HfNbTaTiZr,BCC,S,CR + A,60,,,,560.0,,,,,81.3,,,,,,,,,188
613,J69,10.1016/j.jallcom.2019.05.322,HfNbTaTiZr,BCC,S,CR + A,60,,,,580.0,,,,,81,,,,,,,,,188
614,J69,10.1016/j.jallcom.2019.05.322,HfNbTaTiZr,BCC,S,CR + A,60,,,,600.0,,,,,80.7,,,,,,,,,188
615,J69,10.1016/j.jallcom.2019.05.322,HfNbTaTiZr,BCC,S,CR + A,60,,,,620.0,,,,,80.4,,,,,,,,,188
616,J69,10.1016/j.jallcom.2019.05.322,HfNbTaTiZr,BCC,S,CR + A,60,,,,640.0,,,,,80.2,,,,,,,,,188
617,J69,10.1016/j.jallcom.2019.05.322,HfNbTaTiZr,BCC,S,CR + A,60,,,,660.0,,,,,80,,,,,,,,,188
618,J69,10.1016/j.jallcom.2019.05.322,HfNbTaTiZr,BCC,S,CR + A,60,,,,680.0,,,,,79.8,,,,,,,,,188
619,J69,10.1016/j.jallcom.2019.05.322,HfNbTaTiZr,BCC,S,CR + A,60,,,,700.0,,,,,79.6,,,,,,,,,188
620,J69,10.1016/j.jallcom.2019.05.322,HfNbTaTiZr,BCC,S,CR + A,60,,,,720.0,,,,,79.3,,,,,,,,,188
621,J69,10.1016/j.jallcom.2019.05.322,HfNbTaTiZr,BCC,S,CR + A,60,,,,740.0,,,,,79,,,,,,,,,188
622,J69,10.1016/j.jallcom.2019.05.322,HfNbTaTiZr,BCC,S,CR + A,60,,,,760.0,,,,,78.7,,,,,,,,,188
623,J69,10.1016/j.jallcom.2019.05.322,HfNbTaTiZr,BCC,S,CR + A,60,,,,780.0,,,,,78.4,,,,,,,,,188
624,J69,10.1016/j.jallcom.2019.05.322,HfNbTaTiZr,BCC,S,CR + A,60,,,,800.0,,,,,78.1,,,,,,,,,188
625,J69,10.1016/j.jallcom.2019.05.322,HfNbTaTiZr,BCC,S,CR + A,60,,,,820.0,,,,,77.7,,,,,,,,,188
626,J69,10.1016/j.jallcom.2019.05.322,HfNbTaTiZr,BCC,S,CR + A,60,,,,840.0,,,,,77.4,,,,,,,,,188
627,J70,10.1016/j.msea.2019.138181,CoCrFeNiTi0.3,FCC,S,A + HR,90,,263,T,25.0,540,772,60,,,,,,rearranged order of processing; fixed grain size,,,,,190
628,J70,10.1016/j.msea.2019.138181,CoCrFeNiTi0.3,FCC,S,HR + A,216,,185,,,,,,,,,,,rearranged order of processing; fixed grain size,,,,,190
629,J70,10.1016/j.msea.2019.138181,Co0.5CrFeNi1.5Ti0.3,FCC,S,HR + A,263,,197,,,,,,,,,,,added in T dependant data,,,,,190
630,J70,10.1016/j.msea.2019.138181,Co0.5CrFeNi1.5Ti0.3,FCC,S,A + HR,90,,308,T,25.0,586,875,46,,,,,,added in T dependant data,,,,,190
631,J70,10.1016/j.msea.2019.138181,CrFeNi2Ti0.3,FCC,S,A + HR,90,,335,T,25.0,672,982,37,,,,,,rearranged order of processing; fixed grain size,,,,,190
632,J70,10.1016/j.msea.2019.138181,CrFeNi2Ti0.3,FCC,S,HR + A,324,,204,,,,,,,,,,,added in T dependant data,,,,,190
633,J71,10.1016/j.msea.2019.138140,Nb25Mo25Ta25W25,BCC,S,S ,,,830,,,,,,,,,,,No mechanical data; original data in GPA,,,,,191
634,J71,10.1016/j.msea.2019.138140,Nb25Mo25Ta25W25,BCC,S,S + A,,,1450,,,,,,,,,,,added sintering as a processing type; original data in GPA,,,,,191