,REFERENCE: tag,REFERENCE: doi,FORMULA,PROPERTY: Type of phases,PROPERTY: Single/Multiphase,PROPERTY: synthesis method,PROPERTY: grain size ($\mu$m),PROPERTY: ROM Density (g/cm$^3$),PROPERTY: HV,PROPERTY: Type of test,PROPERTY: Test temperature ($^\circ$C),PROPERTY: YS (MPa),PROPERTY: UTS (MPa),PROPERTY: Elongation (%),PROPERTY: Elongation plastic (%),PROPERTY: ROM Young modulus (GPa),PROPERTY: Exp. Young modulus (GPa),PROPERTY: O content (wppm),PROPERTY: N content (wppm),PROPERTY: C content (wppm),REFERENCE: comment,Internal Reference #,Original DOI,PROPERTY: Exp. Density (g/cm$^3$),Unnamed: 22,IDENTIFIER: Reference ID
361,J38,10.1016/j.actamat.2019.06.032,HfMo0.5NbSi0.5TiV0.5,BCC + M5Si3,M,AC,,,,C,1200.0,188,,,,,,,,,noted grain size greater than 100um,,,8.16,not a review article,166
362,J38,10.1016/j.actamat.2019.06.032,HfMo0.5NbSi0.7TiV0.5,BCC + M5Si3,M,AC,,,,C,1200.0,235,,,,,,,,,noted grain size greater than 100um,,,7.89,not a review article,166
363,J38,10.1016/j.actamat.2019.06.032,MoNbTiVZr,BCC +Laves,M,HIP+A,,,,C,1200.0,116,,,,,,,,,noted grain size greater than 100um,,,7.27,not a review article,166
364,J38,10.1016/j.actamat.2019.06.032,NbRe0.3TiZr,BCC +Laves,M,HIP+A,,,,C,1200.0,89,,,,,,,,,noted grain size greater than 100um,,,7.81,not a review article,166
365,J38,10.1016/j.actamat.2019.06.032,NbTaTiVZr,BCC + BCC,M,HIP+A,,,,C,1200.0,78,,,,,,,,,noted grain size greater than 100um,,,8.43,not a review article,166
366,J39,10.1016/j.intermet.2019.106486,CoCrFeMnNi,FCC,S,HR + A,245.48,,,T,25.0,293.1,625.6,63,,,,,,,processing changed to hot rolled; added grain size from text ,,,7.753,,167
367,J40,10.1016/j.jallcom.2019.04.291,HfNbTaTiZr,BCC,S,CR+A,40,,,T,25.0,985,1004,15.7,,,,,,,added total elongation,,,,,204
368,J40,10.1016/j.jallcom.2019.04.291,HfNbTaTiZr,BCC,S,CR+A,87,,,T,25.0,972,999.5,12.6,,,,,,,added total elongation,,,,,204
369,J40,10.1016/j.jallcom.2019.04.291,HfNbTaTiZr,BCC,S,CR+A,112,,,T,25.0,967,980.6,10.8,,,,,,,added total elongation,,,,,204
370,J41,10.1016/j.intermet.2019.106477,CoNiFe,FCC,S,CR,,,,T,25.0,,,15,,,,,,,fixed elongation,,,,,205
371,J41,10.1016/j.intermet.2019.106477,CoNiFe,FCC,S,CR+A,42,,,T,25.0,276,540,51,,,,,,,fixed elongation,,,,,205
372,J41,10.1016/j.intermet.2019.106477,CoNiFe,FCC,S,CR+A,74,,,T,25.0,217,498,47,,,,,,,fixed elongation,,,,,205
373,J41,10.1016/j.intermet.2019.106477,CoNiFe,FCC,S,CR+A,90,,,T,25.0,201,430,44.5,,,,,,,fixed elongation,,,,,205
374,J42,10.1016/j.jmst.2018.12.002,CrCoNi,,,A,16,,,T,-196.0,600,1247,68,,,,,,,changed processing to annealed? torrsion is something I'm unfamiliar with ,,,,,206
375,J42,10.1016/j.jmst.2018.12.002,CrCoNi,,,A,16,,,T,24.0,400,800,60,,,,,,,changed processing to annealed? torrsion is something I'm unfamiliar with ,,,,,206
376,J42,10.1016/j.jmst.2018.12.002,CrCoNi,,,A,16,,,T,-196.0,1215,1440,48,,,,,,,changed processing to annealed? torrsion is something I'm unfamiliar with ,,,,,206
377,J43,10.1016/j.ijrmhm.2019.02.009,Nb42Mo20Ti13Cr12V12Ta1,BCC + TiC,M,SPS,0.075,,741,C,25.0,2680,,,,,,,,,,,,8.02,,207
378,J43-45,10.1016/j.intermet.2015.10.011,MoNbHfZrTi,BCC,S,AC,,,,C,25.0,1719,,,,,,,,,drawn from other references,45.0,10.1016/j.intermet.2015.10.011,8.68,,208
379,J44,10.1016/j.actamat.2019.04.017,CoFeNi,FCC,S,CR + A,53.7,,,T,25.0,,,,,,161,,,,,,14,,,209
380,J44,10.1016/j.actamat.2019.04.017,(CoNi)95Cr5,FCC,S,CR + A,7.28,,,T,25.0,,,,,,219,,,,,,,,,209
381,J44,10.1016/j.actamat.2019.04.017,FeMnNi,FCC,S,CR + A,0.862,,,T,25.0,529,613,25,,,182,,,,extracted from stress strain curves; yield strength calculated from given relationship,,,,not a review article,209
382,J44,10.1016/j.actamat.2019.04.017,FeMnNi,FCC,S,CR + A,0.894,,,T,25.0,522,601,25,,,182,,,,extracted from stress strain curves; yield strength calculated from given relationship,,,,not a review article,209
383,J44,10.1016/j.actamat.2019.04.017,FeMnNi,FCC,S,CR + A,1.25,,,T,25.0,460,599,27,,,182,,,,extracted from stress strain curves; yield strength calculated from given relationship,,,,not a review article,209
384,J44,10.1016/j.actamat.2019.04.017,FeMnNi,FCC,S,CR + A,1.75,,,T,25.0,407,536,26,,,182,,,,extracted from stress strain curves; yield strength calculated from given relationship,,,,not a review article,209
385,J44,10.1016/j.actamat.2019.04.017,FeMnNi,FCC,S,CR + A,2.26,,,T,25.0,372,542,31,,,182,,,,extracted from stress strain curves; yield strength calculated from given relationship,,,,not a review article,209
386,J44,10.1016/j.actamat.2019.04.017,FeMnNi,FCC,S,CR + A,3.52,,,T,25.0,322,554,49,,,182,,,,extracted from stress strain curves; yield strength calculated from given relationship,,,,not a review article,209
387,J44,10.1016/j.actamat.2019.04.017,CoMnNi,FCC,S,CR + A,1.43,,,T,25.0,333,569,40,,,190,,,,extracted from stress strain curves; yield strength calculated from given relationship,,,,not a review article,209
388,J44,10.1016/j.actamat.2019.04.017,CoMnNi,FCC,S,CR + A,0.4,,,T,25.0,601,608,24,,,190,,,,extracted from stress strain curves; yield strength calculated from given relationship,,,,not a review article,209
389,J44,10.1016/j.actamat.2019.04.017,CoMnNi,FCC,S,CR + A,1.58,,,T,25.0,321,566,50.5,,,190,,,,extracted from stress strain curves,,,,not a review article,209
390,J44,10.1016/j.actamat.2019.04.017,CoMnNi,FCC,S,CR + A,2.67,,,T,25.0,267,506,62.5,,,190,,,,extracted from stress strain curves; yield strength calculated from given relationship,,,,not a review article,209
391,J44,10.1016/j.actamat.2019.04.017,(CoNi)80Cr20,FCC,S,CR + A,0.212,,,T,25.0,745,824,36,,,223,,,,extracted from stress strain curves; yield strength calculated from given relationship,,,,not a review article,209
392,J44,10.1016/j.actamat.2019.04.017,(CoNi)80Cr20,FCC,S,CR + A,0.34,,,T,25.0,623,746,53,,,223,,,,extracted from stress strain curves; yield strength calculated from given relationship,,,,not a review article,209
393,J44,10.1016/j.actamat.2019.04.017,(CoNi)80Cr20,FCC,S,CR + A,1.46,,,T,25.0,387,626,73,,,223,,,,extracted from stress strain curves; yield strength calculated from given relationship,,,,not a review article,209
394,J44,10.1016/j.actamat.2019.04.017,(CoNi)80Cr20,FCC,S,CR + A,2.65,,,T,25.0,330,553,101,,,223,,,,extracted from stress strain curves; yield strength calculated from given relationship,,,,not a review article,209
395,J44,10.1016/j.actamat.2019.04.017,CoCrFeNi,FCC,S,CR + A,0.295,,,T,25.0,631,732,39,,,210,,,,extracted from stress strain curves; yield strength calculated from given relationship,,,,not a review article,209
396,J44,10.1016/j.actamat.2019.04.017,CoCrFeNi,FCC,S,CR + A,0.553,,,T,25.0,494,732,51,,,210,,,,extracted from stress strain curves; yield strength calculated from given relationship,,,,not a review article,209
397,J44,10.1016/j.actamat.2019.04.017,CoCrFeNi,FCC,S,CR + A,0.72,,,T,25.0,448,672,65,,,210,,,,extracted from stress strain curves; yield strength calculated from given relationship,,,,not a review article,209
398,J44,10.1016/j.actamat.2019.04.017,CoCrFeNi,FCC,S,CR + A,3.4,,,T,25.0,273,567,85,,,210,,,,extracted from stress strain curves; yield strength calculated from given relationship,,,,not a review article,209
399,J44,10.1016/j.actamat.2019.04.017,CoCrFeNi,FCC,S,CR + A,32.2,,,T,25.0,172,504,105,,,210,,,,extracted from stress strain curves; yield strength calculated from given relationship,,,,not a review article,209
400,J44,10.1016/j.actamat.2019.04.017,Co20(CrNi)80,FCC,S,CR + A,0.497,,,T,25.0,518,744,36,,,240,,,,extracted from stress strain curves; yield strength calculated from given relationship,,,,not a review article,209
401,J44,10.1016/j.actamat.2019.04.017,Co20(CrNi)80,FCC,S,CR + A,0.848,,,T,25.0,462,703,46,,,240,,,,extracted from stress strain curves; yield strength calculated from given relationship,,,,not a review article,209
402,J44,10.1016/j.actamat.2019.04.017,Co20(CrNi)80,FCC,S,CR + A,1.78,,,T,25.0,395,644,58,,,240,,,,extracted from stress strain curves,,,,not a review article,209
403,J44,10.1016/j.actamat.2019.04.017,Co20(CrNi)80,FCC,S,CR + A,1.98,,,T,25.0,356,588,64,,,240,,,,extracted from stress strain curves,,,,not a review article,209
404,J45,10.1016/j.jallcom.2019.02.083,TiAlNiCo,BCC + B2,M,SPS,,,672 $\pm$ 10,C,25.0,,,,,,,,,,changed to multiphase,,,,,210
405,J45,10.1016/j.jallcom.2019.02.083,TiAlNiFe,BCC + B2,M,SPS,,,666 $\pm$ 13,C,25.0,,,,,,,,,,changed to multiphase,,,,,210
406,J45,10.1016/j.jallcom.2019.02.083,TiAlNiCoFe,BCC + B2,M,SPS,,,667 $\pm$ 7,C,25.0,,,,,,,,,,changed to multiphase,,,,,210
407,J46,10.1016/j.jallcom.2019.01.341,AlCuNiFeCr,FCC + BCC + B2,M,SPS,,,434,,,,,,,,,,,,HV in GPA,,,,,211
408,J46,10.1016/j.jallcom.2019.01.341,AlCuNiFeCr,FCC + BCC + B2,M,SPS,,,666,,,,,,,,,,,,HV in GPA,,,,,211
409,J46,10.1016/j.jallcom.2019.01.341,AlCuNiFeCr,FCC + BCC + B2,M,SPS,,,761,,,,,,,,,,,,HV in GPA,,,,,211
410,J46,10.1016/j.jallcom.2019.01.341,AlCuNiFeCr,FCC + BCC + B2,M,SPS,,,747,,,,,,,,,,,,HV in GPA,,,,,211
411,J46,10.1016/j.jallcom.2019.01.341,AlCuNiFeCr,FCC + BCC + B2,M,SPS,,,,C,20.0,1511,,5,,,,,,,,,,,,211
412,J46,10.1016/j.jallcom.2019.01.341,AlCuNiFeCr,FCC + BCC + B2,M,SPS,,,,C,400.0,1366,,17,,,,,,,,,,,,211
413,J46,10.1016/j.jallcom.2019.01.341,AlCuNiFeCr,FCC + BCC + B2,M,SPS,,,,C,600.0,410,,>35,,,,,,,,,,,,211
414,J46,10.1016/j.jallcom.2019.01.341,AlCuNiFeCr,FCC + BCC + B2,M,SPS,,,,C,800.0,48,,>35,,,,,,,,,,,,211
415,J47,10.1016/j.msea.2019.04.025,FeCrCoMnNi,FCC,S,AC,,,,T,25.0,210,,57,,,,,,,,,,,,212
416,J47,10.1016/j.msea.2019.04.025,FeCrCoMnNi,FCC,S,CR,,,,T,25.0,1150,,6,,,,,,,,,,,,212
417,J47,10.1016/j.msea.2019.04.025,FeCrCoMnNi,FCC,S,CR + A,,,,T,25.0,1300,,2,,,,,,,,,,,,212
418,J47,10.1016/j.msea.2019.04.025,FeCrCoMnNi,FCC,M,CR + A,4,,,T,25.0,1050,,8,,,,,,,,,,,,212
419,J47,10.1016/j.msea.2019.04.025,FeCrCoMnNi,FCC,M,CR + A,8,,,T,25.0,560,,49,,,,,,,,,,,,212
420,J47,10.1016/j.msea.2019.04.025,FeCrCoMnNi,FCC,S,CR + A,8,,,T,25.0,520,,47,,,,,,,,,,,,212
421,J47,10.1016/j.msea.2019.04.025,FeCrCoMnNi,FCC,S,CR + A,10,,,T,25.0,320,,59,,,,,,,,,,,,212
422,J47,10.1016/j.msea.2019.04.025,FeCrCoMnNi,FCC,S,CR + A,20,,,T,25.0,280,,62,,,,,,,,,,,,212
423,J48,10.1016/j.scriptamat.2019.02.038,CoFeNi2V0.5Mo0.2,FCC,S,AC,,,,T,-196.0,419,,34.6,,,,,,,fracture strength isn't UTS,,,,,213
424,J48,10.1016/j.scriptamat.2019.02.038,CoFeNi2V0.5Mo0.2,FCC,S,AC,,,,T,-70.0,350,,28.8,,,,,,,fracture strength isn't UTS,,,,,213
425,J48,10.1016/j.scriptamat.2019.02.038,CoFeNi2V0.5Mo0.2,FCC,S,AC,,,,T,20.0,252,,82.1,,,,,,,fracture strength isn't UTS,,,,,213
426,J48,10.1016/j.scriptamat.2019.02.038,CoFeNi2V0.5Mo0.2,FCC,S,AC,,,,T,600.0,214,,189.2,,,,,,,fracture strength isn't UTS,,,,,213
427,J48,10.1016/j.scriptamat.2019.02.038,CoFeNi2V0.5Mo0.2,FCC,S,AC,,,,T,700.0,212,,154.3,,,,,,,fracture strength isn't UTS,,,,,213
428,J48,10.1016/j.scriptamat.2019.02.038,CoFeNi2V0.5Mo0.2,FCC,S,AC,,,,T,800.0,187,,119.5,,,,,,,fracture strength isn't UTS,,,,,213
429,J49,10.1088/2053-1591/ab0597,Al0.3CoCrFeNi,FCC,S,AC,,,132,C,300.0,,,,,,,,,,,,,,,214
430,J49,10.1088/2053-1591/ab0597,Al0.3CoCrFeNi,FCC,S,AC,,,147,C,340.0,,,,,,,,,,,,,,,214
431,J49,10.1088/2053-1591/ab0597,Al0.3CoCrFeNi,FCC,S,AC,,,165,C,430.0,,,,,,,,,,,,,,,214
432,J50,10.1016/j.matchar.2019.03.006,AlCrFeCoNi,B2 + BCC,M,AC,204,,519 $\pm$ 21,C,25.0,1631,,16,,,,,,,fixed yield strength values,,,,,216
433,J50,10.1016/j.matchar.2019.03.006,AlCrFeCoNi,B2 + BCC,M,AC,185,,493 $\pm$,C,25.0,1209,,23,,,,,,,fixed yield strength values,,,,,216
434,J51,10.1016/j.jallcom.2018.12.040,Co17.5Cr12.5Fe55Ni10Mo5,FCC + $\mu$,M,CR + A,4.4 $\pm$ 1.9,,,T,25.0,443 $\pm$ 12,840 $\pm$ 21,61.6 $\pm$ 1.3,,,,,,,,,,,,217
435,J51,10.1016/j.jallcom.2018.12.040,Co18Cr12.5Fe55Ni7Mo7.5,FCC + $\mu$,M,CR + A,3.2 $\pm$ 1.5,,,T,25.0,711 $\pm$ 15,1096 $\pm$ 16,38.3 $\pm$ 1.4,,,,,,,,,,,,217
436,J51,10.1016/j.jallcom.2018.12.040,Co17.5Cr12.5Fe55Ni10Mo5,FCC + $\mu$,M,CR + A,26.3 $\pm$ 3.4,,,T,25.0,301 $\pm$ 15,718 $\pm$ 32,77.5 $\pm$ 3.1,,,,,,,,,,,,217
437,J51,10.1016/j.jallcom.2018.12.040,Co18Cr12.5Fe55Ni7Mo7.5,FCC + $\mu$,M,CR + A,4.8 $\pm$ 2.6,,,T,25.0,684 $\pm$ 9,1078 $\pm$ 17,48.1 $\pm$ 2.7,,,,,,,,,,,,217
438,J51,10.1016/j.jallcom.2018.12.040,Co17.5Cr12.5Fe55Ni10Mo5,FCC + $\mu$,M,CR + A,70.1 $\pm$ 4.3,,,T,25.0,261 $\pm$ 8,673 $\pm$ 22,86.6 $\pm$ 3.3,,,,,,,,,,,,217
439,J51,10.1016/j.jallcom.2018.12.040,Co18Cr12.5Fe55Ni7Mo7.5,FCC + $\mu$,M,CR + A,5.4 $\pm$ 2.8,,,T,25.0,506 $\pm$ 7,933 $\pm$ 20,59.3 $\pm$ 3.4,,,,,,,,,,,,217
440,J51,10.1016/j.jallcom.2018.12.040,Co17.5Cr12.5Fe55Ni10Mo5,FCC + $\mu$,M,CR + A,136.5 $\pm$ 10.8,,,T,25.0,231 $\pm$ 7,638 $\pm$ 13,87.2 $\pm$ 4.2,,,,,,,,,,,,217
441,J51,10.1016/j.jallcom.2018.12.040,Co18Cr12.5Fe55Ni7Mo7.5,FCC + $\mu$,M,CR + A,120.6 $\pm$ 10.3,,,T,25.0,296 $\pm$ 6,693 $\pm$ 21,63.2 $\pm$ 5.2,,,,,,,,,,,,217
442,J52,10.1016/j.jallcom.2018.11.181,CoCrFeMnNi,FCC,S,A,>300,,,,,,,,,,,,,,,,,,,218
443,J52,10.1016/j.jallcom.2018.11.181,CoCrFeMnNi,FCC,S,SPS,4.2,,,,,,,,,,,,,,correct processing to SPS,,,,,218
444,J52,10.1016/j.jallcom.2018.11.181,CoCrFeMnNi,FCC,S,SPS,1.3,,,,,,,,,,,,,,,,,,,218
445,J54,10.1007/s11665-019-04003-4,FeCrCuMnNi,FCC + BCC,M,AC,,,,T,25.0,615,950,14,,,,,,,,,,,,219
446,J54,10.1007/s11665-019-04003-4,FeCrCuMnNi,FCC + BCC,M,A,,,,,,,,,,,,,,,,,,,,219
447,J54,10.1007/s11665-019-04003-4,FeCrCuMnNi,FCC + BCC,M,A,,,,,,,,,,,,,,,,,,,,219
448,J54,10.1007/s11665-019-04003-4,FeCrCuMnNi,FCC + BCC,M,A,,,,,,,,,,,,,,,,,,,,219
449,J54,10.1007/s11665-019-04003-4,FeCrCuMnNi,FCC + BCC + $\sigma$,M,A,,,,,,,,,,,,,,,,,,,,219
450,J54,10.1007/s11665-019-04003-4,FeCrCuMnNi,FCC + BCC + $\sigma$,M,A,,,,,,,,,,,,,,,,,,,,219
451,J54,10.1007/s11665-019-04003-4,FeCrCuMnNi,FCC + BCC + $\sigma$,M,A,,,,,,,,,,,,,,,,,,,,219
452,J54,10.1007/s11665-019-04003-4,FeCrCuMnNi,FCC + BCC + $\sigma$,M,A,,,,,,,,,,,,,,,,,,,,219
453,J54,10.1007/s11665-019-04003-4,FeCrCuMnNi,FCC + BCC,M,A,,,,,,,,,,,,,,,,,,,,219
454,J56,10.1016/j.jallcom.2018.11.111,MoNbRe0.5W,BCC,S,AC,,,473,C,25.0,896 $\pm$ 13,,10.4,7.08,,,,,,added hardness vickers; changed fracture strain to total strain from stress strain plot,,,,,220
455,J56,10.1016/j.jallcom.2018.11.111,MoNbRe0.5W(TaC)0.2,BCC + MC,M,AC,,,510,C,25.0,1074 $\pm$ 11,,12.1,8.33,,,,,,added hardness vickers; changed fracture strain to total strain from stress strain plot,,,,,220
456,J56,10.1016/j.jallcom.2018.11.111,MoNbRe0.5W(TaC)0.4,BCC + MC,M,AC,,,558,C,25.0,1144 $\pm$ 33,,12.7,8.81,,,,,,added hardness vickers; changed fracture strain to total strain from stress strain plot,,,,,220
457,J56,10.1016/j.jallcom.2018.11.111,MoNbRe0.5W(TaC)0.5,BCC + MC,M,AC,,,583,C,25.0,1202 $\pm$ 15,,14.2,10.25,,,,,,added hardness vickers; changed fracture strain to total strain from stress strain plot,,,,,220
458,J56,10.1016/j.jallcom.2018.11.111,MoNbRe0.5W(TaC)0.6,BCC + MC,M,AC,,,615,C,25.0,1241 $\pm$ 26,,13.8,9.64,,,,,,added hardness vickers; changed fracture strain to total strain from stress strain plot,,,,,220
459,J58,10.3390/e21020169,Al10Co25Cr8Fe15Ni36Ti6,FCC,S,A,,,,T,23.0,520 $\pm$ 19,696 $\pm$ 33,49,,,,,,,reported total elongation ,,,,,221
460,J58,10.3390/e21020169,Al10Co25Cr8Fe15Ni36Ti6,FCC,S,A,,,,T,600.0,470 $\pm$ 8,561 $\pm$ 50,11 $\pm$ 8,,,,,,,,,,,,221
461,J58,10.3390/e21020169,Al10Co25Cr8Fe15Ni36Ti6,FCC,S,A,,,,T,700.0,461 $\pm$ 10,560 $\pm$ 27,9 $\pm$ 4,,,,,,,,,,,,221
462,J58,10.3390/e21020169,Al10Co25Cr8Fe15Ni36Ti6,FCC,S,A,,,,T,800.0,445 $\pm$ 2,536 $\pm$ 7,6 $\pm$ 4,,,,,,,,,,,,221
463,J58,10.3390/e21020169,Al10Co25Cr8Fe15Ni36Ti6,FCC,S,A,,,,T,900.0,219 $\pm$ 6,312 $\pm$ 6,8 $\pm$ 6,,,,,,,,,,,,221
464,J58,10.3390/e21020169,Al10Co25Cr8Fe15Ni36Ti6,FCC,S,DC + A,,,,T,23.0,627 $\pm$ 9,1197 $\pm$ 6,27 $\pm$ 1,,,,,,,Directional Casting,,,,,221
465,J58,10.3390/e21020169,Al10Co25Cr8Fe15Ni36Ti6,FCC,S,DC + A,,,,T,600.0,594 $\pm$ 3,1006 $\pm$ 16,12 $\pm$ 2,,,,,,,Directional Casting,,,,,221
466,J58,10.3390/e21020169,Al10Co25Cr8Fe15Ni36Ti6,FCC,S,DC + A,,,,T,700.0,547 $\pm$ 42,840 $\pm$ 1,17 $\pm$ 5,,,,,,,Directional Casting,,,,,221
467,J58,10.3390/e21020169,Al10Co25Cr8Fe15Ni36Ti6,FCC,S,DC + A,,,,T,800.0,399 $\pm$ 1,575 $\pm$ 7,20 $\pm$ 4,,,,,,,Directional Casting,,,,,221
468,J58,10.3390/e21020169,Al10Co25Cr8Fe15Ni36Ti6,FCC,S,DC + A,,,,T,900.0,243 $\pm$ 2,319 $\pm$ 1,34 $\pm$ 1,,,,,,,Directional Casting,,,,,221
469,J59,10.1016/j.msea.2018.12.077,V10Cr15Mn5Fe35Co10Ni25,FCC,S,CR + A,8.7,,,T,25.0,401,717,49,,,,,,,Added data from Fig 3; total elongation recorded,,,,,222
470,J59,10.1016/j.msea.2018.12.077,V10Cr15Mn5Fe35Co10Ni25,FCC,S,CR + A,10.4,,,T,25.0,350,690,50,,,,,,,Added data from Fig 3; total elongation recorded,,,,,222
471,J59,10.1016/j.msea.2018.12.077,V10Cr15Mn5Fe35Co10Ni25,FCC,S,CR + A,11.2,,,T,25.0,312,660,51,,,,,,,Added data from Fig 3; total elongation recorded,,,,,222
472,J59,10.1016/j.msea.2018.12.077,V10Cr15Mn5Fe35Co10Ni25,FCC,S,CR + A,48.2,,,T,25.0,240,610,53,,,,,,,Added data from Fig 3; total elongation recorded,,,,,222
473,J59,10.1016/j.msea.2018.12.077,V10Cr15Mn5Fe35Co10Ni25,FCC,S,CR + A,82.7,,,T,25.0,210,593,52,,,,,,,,,,,,222
474,J60,10.1016/j.jallcom.2019.07.195,CoCrFeNiMn,2FCC,M,SPS,,,410.9,T,25.0,,,,,,184,,,,Can someone re-review this article. I'm not completely confident in my reporting CHECKED (CF) added hardness in GPA; flexuarl strength isn't yield strength,,,7.5,,224
475,J61,10.1016/j.jallcom.2019.07.100,Al2CoCrFeNi,BCC + B2,M,AC,80.67,,581.7,C,25.0,1241,,9.98,,,,,,,"Misplaced Elongation values into Young's Modulus, amended",,,,,225
476,J61,10.1016/j.jallcom.2019.07.100,Al1.8CoCrFeNiTi0.2,BCC + B2,M,AC,66.93,,605.5,C,25.0,1324,,10.02,,,,,,,,,,,,225
477,J61,10.1016/j.jallcom.2019.07.100,Al1.5CoCrFeNiTi0.5,BCC + B2,M,AC,56.27,,641.7,C,25.0,1566,,11.85,,,,,,,,,,,,225
478,J61,10.1016/j.jallcom.2019.07.100,Al1.2CoCrFeNiTi0.8,BCC + B2,M,AC,49.95,,639.6,C,25.0,1503,,7.73,,,,,,,,,,,,225
479,J61,10.1016/j.jallcom.2019.07.100,AlCoCrFeNiTi,BCC + B2 + Laves,M,AC,30.49,,703,C,25.0,1448,,6.18,,,,,,,,,,,,225
480,J61,10.1016/j.jallcom.2019.07.100,Al0.8CoCrFeNiTi1.2,BCC + B2 + Laves,M,AC,22.03,,856.9,C,25.0,1272,,3.15,,,,,,,,,,,,225
481,J61-38,10.1016/j.jallcom.2018.01.247,AlCoCrFeNi,,,,,,,C,25.0,1300,,24.2,,,,,,,"Extracted Engineering Values from Table 4, comes from multiple other references",38.0,10.1016/j.jallcom.2018.01.247,,,227
482,J61-38,10.1016/j.jallcom.2018.01.247,Al0.8CoCrFeNiTi0.2,,,,,,,C,25.0,968,,30.1,,,,,,,"Extracted Engineering Values from Table 4, comes from multiple other references",38.0,10.1016/j.jallcom.2018.01.247,,,227
483,J61-38,10.1016/j.jallcom.2018.01.247,Al0.5CoCrFeNiTi0.5,,,,,,,C,25.0,1100,,27.5,,,,,,,"Extracted Engineering Values from Table 4, comes from multiple other references",38.0,10.1016/j.jallcom.2018.01.247,,,227
484,J61-24,10.1016/j.matdes.2016.12.036,AlCoCuFeNi,,,,,,,C,25.0,1060,,19.1,,,,,,,"Extracted Engineering Values from Table 4, comes from multiple other references",24.0,10.1016/j.matdes.2016.12.036,,,226
485,J61-24,10.1016/j.matdes.2016.12.036,AlCoCuFeNiCr,,,,,,,C,25.0,1285,,24.6,,,,,,,"Extracted Engineering Values from Table 4, comes from multiple other references",24.0,10.1016/j.matdes.2016.12.036,,,226
486,J61-24,10.1016/j.matdes.2016.12.036,AlCoCuFeNiTi,,,,,,,C,25.0,1612,,12.8,,,,,,,"Extracted Engineering Values from Table 4, comes from multiple other references",24.0,10.1016/j.matdes.2016.12.036,,,226
487,J61-24,10.1016/j.matdes.2016.12.036,AlCoCuFeNiCrTi,,,,,,,C,25.0,1523,,8.1,,,,,,,"Extracted Engineering Values from Table 4, comes from multiple other references",24.0,10.1016/j.matdes.2016.12.036,,,226
488,J61-57,10.1016/j.jallcom.2018.07.346,AlCrFeNi,,,,,,,C,25.0,1271,,14,,,,,,,"Extracted Engineering Values from Table 4, comes from multiple other references",57.0,10.1016/j.jallcom.2018.07.346,,,228
489,J61-57,10.1016/j.jallcom.2018.07.346,AlCo0.25CrFeNi,,,,,,,C,25.0,1363,,19,,,,,,,"Extracted Engineering Values from Table 4, comes from multiple other references",57.0,10.1016/j.jallcom.2018.07.346,,,228
490,J61-57,10.1016/j.jallcom.2018.07.346,AlCo0.5CrFeNi,,,,,,,C,25.0,1349,,20,,,,,,,"Extracted Engineering Values from Table 4, comes from multiple other references",57.0,10.1016/j.jallcom.2018.07.346,,,228