,REFERENCE: tag,REFERENCE: doi,FORMULA,PROPERTY: Type of phases,PROPERTY: Single/Multiphase,PROPERTY: synthesis method,PROPERTY: grain size ($\mu$m),PROPERTY: ROM Density (g/cm$^3$),PROPERTY: HV,PROPERTY: Type of test,PROPERTY: Test temperature ($^\circ$C),PROPERTY: YS (MPa),PROPERTY: UTS (MPa),PROPERTY: Elongation (%),PROPERTY: Elongation plastic (%),PROPERTY: Young modulus (GPa),PROPERTY: O content (wppm),PROPERTY: N content (wppm),PROPERTY: C content (wppm),REFERENCE: comment,"Internal Reference # (J4, J90)","J4, J90 Original DOI",PROPERTY: Exp. Density (g/cm$^3$),Unnamed: 22,IDENTIFIER: Reference ID
543,Couzinie_3,10.1016/j.matdes.2017.11.033,Al0.5Mo0.5NbTa0.5TiZr,BCC+B2,M,HIP+A,,7.6,,C,1000.0,579.0,646.0,,,,,,,,,,,,78
544,Couzinie_3,10.1016/j.matdes.2017.11.033,Al0.5Mo0.5NbTa0.5TiZr,BCC+B2,M,HIP+A,,7.6,,C,25.0,2350.0,2460.0,,,,,,,,,,,,78
545,Couzinie_3,10.1016/j.matdes.2017.11.033,AlMo0.5NbTa0.5TiZr,BCC+B2,M,HIP+A,,7.1,,C,1000.0,745.0,792.0,,,,,,,,,,,,78
546,Couzinie_3,10.1016/j.matdes.2017.11.033,AlMo0.5NbTa0.5TiZr,BCC+B2,M,HIP+A,,7.1,,C,25.0,2197.0,2370.0,,,,,,,,,,,,78
547,Couzinie_3,10.1016/j.matdes.2017.11.033,AlMo0.5NbTa0.5TiZr0.5,B2,S,HIP+A,,7.2,,C,1000.0,935.0,1019.0,,,,,,,,,,,,78
548,Couzinie_3,10.1016/j.matdes.2017.11.033,AlMo0.5NbTa0.5TiZr0.5,B2,S,HIP+A,,7.2,,C,25.0,,1320.0,,,,,,,,,,,,78
549,Couzinie_3,10.1016/j.matdes.2017.11.033,AlNbTa0.5TiZr0.5,B2,S,HIP+A,,6.9,,C,1000.0,535.0,542.0,,,,,,,,,,,,78
550,Couzinie_3,10.1016/j.matdes.2017.11.033,AlNbTa0.5TiZr0.5,B2,S,HIP+A,,6.9,,C,25.0,1352.0,1357.0,,,,,,,,,,,,78
551,Couzinie_31,10.4028/www.scientific.net/MSF.849.76,HfNbSi0.5TiVZr,BCC+Laves+M5Si3,M,A,,7.5,,C,400.0,1273.0,1335.0,14.5,,,,,,,,,,,79
552,Couzinie_31,10.4028/www.scientific.net/MSF.849.76,HfNbSi0.5TiVZr,BCC+Laves+M5Si3,M,A,,7.5,,C,600.0,597.0,651.0,>50,,,,,,,,,,,79
553,Couzinie_31,10.4028/www.scientific.net/MSF.849.76,HfNbSi0.5TiVZr,BCC+Laves+M5Si3,M,A,,7.5,,C,800.0,102.0,107.0,>50,,,,,,,,,,,79
554,Couzinie_31,10.4028/www.scientific.net/MSF.849.76,HfNbSi0.5TiVZr,BCC+Laves+M5Si3,M,A,,7.5,,C,25.0,1483.0,1611.0,9.5,,,,,,,,,,,79
555,Couzinie_31,10.4028/www.scientific.net/MSF.849.76,HfNbSi0.5TiVZr,BCC+Laves+M5Si3,M,AC,,7.5,,C,600.0,920.0,1252.0,>50,,,,,,,,,,,79
556,Couzinie_31,10.4028/www.scientific.net/MSF.849.76,HfNbSi0.5TiVZr,BCC+Laves+M5Si3,M,AC,,7.5,,C,800.0,371.0,427.0,>50,,,,,,,,,,,79
557,Couzinie_31,10.4028/www.scientific.net/MSF.849.76,HfNbSi0.5TiVZr,BCC+Laves+M5Si3,M,AC,,7.5,,C,25.0,1540.0,1643.0,16.8,,,,,,,,,,,79
558,Couzinie_32,10.1016/j.actamat.2017.09.035,HfNbTaTiZr,BCC,S,SPD,0.05,9.9,420,T,25.0,1900.0,,7.9,,110.6,,,,,,,,,80
559,Couzinie_32,10.1016/j.actamat.2017.09.035,HfNbTaTiZr,BCC+HCP,M,SPD+A,0.05,9.9,530,T,25.0,1520.0,,1.7,,,,,,,,,,,80
560,Couzinie_32,10.1016/j.actamat.2017.09.035,HfNbTaTiZr,BCC+BCC+HCP,M,SPD+A,0.1,9.9,340,T,25.0,795.0,,5,,,,,,,,,,,80
561,Couzinie_32,10.1016/j.actamat.2017.09.035,HfNbTaTiZr,BCC,S,CR+A,100,9.9,309,T,25.0,830.0,840.0,9.2,,110.6,,,,,,,,,80
562,Couzinie_33,10.1016/j.jallcom.2015.07.209,HfNbTaTiZr,BCC,S,CR,,9.9,366,T,25.0,1202.0,1295.0,4.7,,110.6,,,,,,,,,81
563,Couzinie_33,10.1016/j.jallcom.2015.07.209,HfNbTaTiZr,BCC+BCC,M,CR+A,,9.9,,T,25.0,1303.0,1334.0,,,,,,,,,,,,81
564,Couzinie_33,10.1016/j.jallcom.2015.07.209,HfNbTaTiZr,BCC,S,CR+A,,9.9,351,T,25.0,1145.0,1262.0,9.7,,110.6,,,,,,,,,81
565,Couzinie_34,10.1016/j.matlet.2016.08.060,HfNbTaTiZr,BCC,S,CR+A,,9.9,,T,25.0,958.0,974.0,,,110.6,,,,,,,,,82
566,Couzinie_34,10.1016/j.matlet.2016.08.060,HfNbTaTiZr,BCC,S,CR+A,,9.9,,T,25.0,944.0,959.0,,,110.6,,,,,,,,,82
567,Couzinie_34,10.1016/j.matlet.2016.08.060,HfNbTaTiZr,BCC,S,CR+A,,9.9,,T,25.0,940.0,953.0,,,110.6,,,,,,,,,82
568,Couzinie_35,10.1016/j.actamat.2017.09.062,HfNbTaTiZr,BCC,S,CR+A,,9.9,,T,25.0,940.0,1080.0,,,110.6,,,,,,,,,83
569,Couzinie_36,10.1016/j.jallcom.2011.02.171,HfNbTaTiZr,BCC,S,HIP+A,,9.9,,C,25.0,929.0,,,,110.6,,,,,,,,,84
570,Couzinie_37,10.1016/j.msea.2015.08.024,HfNbTaTiZr,BCC,S,AC,,9.9,,C,25.0,905.0,,,,110.6,,,,,,,,,85
571,Couzinie_38,10.1016/j.matchar.2015.11.018,HfNbTaTiZr,BCC,S,AC,,9.9,,C,25.0,890.0,,,,110.6,,,,,,,,,86
572,Couzinie_39,10.1016/j.msea.2015.12.017,HfNbTaTiZr,BCC,S,AC,,9.9,,T,25.0,828.0,862.0,,,110.6,,,,,,,,,87
573,Couzinie_39,10.1016/j.msea.2015.12.017,HfNbTaTiZr,BCC,S,AC,,9.9,,T,25.0,827.0,856.0,,,110.6,,,,,,,,,87
574,Couzinie_39,10.1016/j.msea.2015.12.017,HfNbTaTiZr,BCC,S,AC,,9.9,,T,25.0,820.0,869.0,,,110.6,,,,,,,,,87
575,Couzinie_39,10.1016/j.msea.2015.12.017,HfNbTaTiZr,BCC,S,AC,,9.9,,T,25.0,803.0,810.0,,,110.6,,,,,,,,,87
576,Couzinie_4,10.4028/www.scientific.net/MSF.898.638,Al0.2MoTaTiV,BCC,S,AC,,9.2,,C,25.0,1021.0,1249.0,,,184.0,,,,,,,,,88
577,Couzinie_4,10.4028/www.scientific.net/MSF.898.638,Al0.6MoTaTiV,BCC,S,AC,,8.6,,C,25.0,962.0,1033.0,,,174.1,,,,,,,,,88
578,Couzinie_4,10.4028/www.scientific.net/MSF.898.638,AlMoTaTiV,BCC,S,AC,,8.2,,C,25.0,,735.0,,,165.8,,,,,,,,,88
579,Couzinie_4,10.4028/www.scientific.net/MSF.898.638,MoTaTiV,BCC,S,AC,,9.5,,C,25.0,1221.0,1454.0,,,189.8,,,,,,,,,88
580,Couzinie_41,10.1016/j.actamat.2016.01.018,HfNbTaZr,BCC+HCP,M,A,,11.1,571,C,25.0,2310.0,,0.3,,,,,,,,,,,89
581,Couzinie_41,10.1016/j.actamat.2016.01.018,HfNbTaZr,BCC+HCP,M,A,,11.1,536,C,25.0,2100.0,2200.0,3.5,,,,,,,,,,,89
582,Couzinie_41,10.1016/j.actamat.2016.01.018,HfNbTaZr,BCC+HCP,M,A,,11.1,,C,25.0,2020.0,2030.0,1.7,,,,,,,,,,,89
583,Couzinie_41,10.1016/j.actamat.2016.01.018,HfNbTaZr,BCC+HCP,M,A,,11.1,550,C,25.0,1950.0,2010.0,2.2,,,,,,,,,,,89
584,Couzinie_41,10.1016/j.actamat.2016.01.018,HfNbTaZr,BCC,S,AC,,11.1,365,C,25.0,1315.0,1800.0,21.6,,109.3,,,,,,,,,89
585,Couzinie_43,10.1002/adma.201701678,HfTa0.4TiZr,BCC+HCP,M,AC,,9.2,,T,25.0,400.0,1100.0,,,,,,,,,,,,90
586,Couzinie_43,10.1002/adma.201701678,HfTa0.5TiZr,BCC+HCP,M,AC,,9.4,,T,25.0,700.0,1100.0,,,,,,,,,,,,90
587,Couzinie_43,10.1002/adma.201701678,HfTa0.6TiZr,BCC+HCP,M,AC,,9.6,,T,25.0,800.0,1100.0,,,,,,,,,,,,90
588,Couzinie_43,10.1002/adma.201701678,HfTaTiZr,BCC,S,AC,,10.2,,T,25.0,1500.0,1500.0,,,112.0,,,,,,,,,90
589,Couzinie_45,10.1016/j.msea.2017.12.004,MoNbTaTi0.25W,BCC,S,AC,,13.0,478.3,C,25.0,1109.0,1197.0,,,249.4,,,,,,,,,91
590,Couzinie_45,10.1016/j.msea.2017.12.004,MoNbTaTi0.5W,BCC,S,AC,,12.6,481.2,C,25.0,1211.0,1578.0,,,242.0,,,,,,,,,91
591,Couzinie_45,10.1016/j.msea.2017.12.004,MoNbTaTi0.75W,BCC,S,AC,,12.1,495.6,C,25.0,1304.0,1593.0,,,235.4,,,,,,,,,91
592,Couzinie_45,10.1016/j.msea.2017.12.004,MoNbTaTiW,BCC,S,AC,,11.7,507.5,C,25.0,1455.0,1910.0,,,229.4,,,,,,,,,91
593,Couzinie_45,10.1016/j.msea.2017.12.004,MoNbTaW,BCC,S,AC,,13.6,,C,25.0,996.0,1148.0,,,257.8,,,,,,,,,91
594,Couzinie_46,10.1016/j.jallcom.2016.11.188,MoNbTaTiV,BCC,S,AC,,9.3,,C,25.0,1400.0,2450.0,,,172.8,,,,,,,,,92
595,Couzinie_47,10.1016/j.intermet.2017.01.007,MoNbTaTiVW,BCC,S,AC,,10.9,,C,600.0,973.0,1590.0,,,212.5,,,,,,,,,93
596,Couzinie_47,10.1016/j.intermet.2017.01.007,MoNbTaTiVW,BCC,S,AC,,10.9,,C,800.0,791.3,1180.0,,,,,,,,,,,,93
597,Couzinie_47,10.1016/j.intermet.2017.01.007,MoNbTaTiVW,BCC,S,AC,,10.9,,C,1000.0,752.8,1105.0,,,,,,,,,,,,93
598,Couzinie_47,10.1016/j.intermet.2017.01.007,MoNbTaTiVW,BCC,S,AC,,10.9,,C,1200.0,659.0,696.0,,,,,,,,,,,,93
599,Couzinie_47,10.1016/j.intermet.2017.01.007,MoNbTaTiVW,BCC,S,AC,,10.9,,C,25.0,1515.0,2135.0,,,,,,,,,,,,93
600,Couzinie_47,10.1016/j.intermet.2017.01.007,MoNbTaTiW,BCC,S,AC,,11.7,,C,600.0,689.0,1681.0,,,229.4,,,,,,,,,93
601,Couzinie_47,10.1016/j.intermet.2017.01.007,MoNbTaTiW,BCC,S,AC,,11.7,,C,800.0,674.0,1618.0,,,,,,,,,,,,93
602,Couzinie_47,10.1016/j.intermet.2017.01.007,MoNbTaTiW,BCC,S,AC,,11.7,,C,1000.0,620.0,1426.0,,,,,,,,,,,,93
603,Couzinie_47,10.1016/j.intermet.2017.01.007,MoNbTaTiW,BCC,S,AC,,11.7,,C,1200.0,586.0,814.0,,,,,,,,,,,,93
604,Couzinie_47,10.1016/j.intermet.2017.01.007,MoNbTaTiW,BCC,S,AC,,11.7,,C,25.0,1343.0,2005.0,,,,,,,,,,,,93
605,Couzinie_48,10.1016/j.msec.2016.12.057,MoNbTaTiZr,BCC+BCC,M,AC,,9.1,,C,25.0,1390.0,,,,,,,,,,,,,94
606,Couzinie_49,10.1016/j.scriptamat.2016.10.028,MoNbTaTiZr,BCC+BCC,M,A,,9.1,,C,25.0,1100.0,1200.0,,,,,,,,,,,,95
607,Couzinie_49,10.1016/j.scriptamat.2016.10.028,MoNbTaTiZr,BCC+BCC,M,AC,,9.1,,C,25.0,1375.0,1450.0,,,,,,,,,,,,95
608,Couzinie_51,10.1016/j.msea.2017.12.021,MoNbTaVW,BCC,S,SPS,,12.3,,C,25.0,2612.0,3472.0,,,231.8,,,,,,,,,96
609,Couzinie_54,10.1016/j.msea.2016.07.102,NbTaTiV,BCC,S,AC,,9.1,,C,25.0,965.0,,,,133.8,,,,,,,,,97
610,Couzinie_54,10.1016/j.msea.2016.07.102,NbTaTiVW,BCC,S,AC,,11.0,,C,25.0,1420.0,1800.0,20,,189.2,,,,,,,,,97
611,Couzinie_54,10.1016/j.msea.2016.07.102,NbTaVW,BCC,S,AC,,12.8,,C,25.0,1530.0,1700.0,12,,207.5,,,,,,,,,97
612,Couzinie_8,10.1016/j.matlet.2016.11.030,Al0.5CrNbTi2V0.5,BCC+Laves,M,A,,5.8,,C,600.0,930.0,,,,,,,,,,,,,98
613,Couzinie_8,10.1016/j.matlet.2016.11.030,Al0.5CrNbTi2V0.5,BCC+Laves,M,A,,5.8,,C,800.0,445.0,,,,143.0,,,,,,,,,98
614,Couzinie_8,10.1016/j.matlet.2016.11.030,Al0.5CrNbTi2V0.5,BCC+Laves,M,A,,5.8,,C,1000.0,90.0,,,,,,,,,,,,,98
615,Couzinie_8,10.1016/j.matlet.2016.11.030,Al0.5CrNbTi2V0.5,BCC+Laves,M,A,,5.8,,C,25.0,1340.0,1700.0,,,,,,,,,,,,98
616,Couzinie_8,10.1016/j.matlet.2016.11.030,Al0.5CrNbTi2V0.5,BCC,S,AC,,5.8,,C,25.0,1240.0,,,,,,,,,,,,,98
617,Couzinie_9,10.1016/j.jallcom.2015.08.224,AlCr0.5NbTiV,BCC,S,A,,5.6,,C,600.0,1005.0,1045.0,,,124.1,,,,,,,,,99
618,Couzinie_9,10.1016/j.jallcom.2015.08.224,AlCr0.5NbTiV,BCC,S,A,,5.6,,C,800.0,640.0,685.0,,,,,,,,,,,,99
619,Couzinie_9,10.1016/j.jallcom.2015.08.224,AlCr0.5NbTiV,BCC,S,A,,5.6,,C,1000.0,40.0,80.0,,,,,,,,,,,,99
620,Couzinie_9,10.1016/j.jallcom.2015.08.224,AlCr0.5NbTiV,BCC,S,A,,5.6,,C,25.0,1300.0,1430.0,,,,,,,,,,,,99
621,Couzinie_9,10.1016/j.jallcom.2015.08.224,AlCr1.5NbTiV,BCC+Laves,M,A,,5.8,,C,600.0,1370.0,1480.0,,,,,,,,,,,,99
622,Couzinie_9,10.1016/j.jallcom.2015.08.224,AlCr1.5NbTiV,BCC+Laves,M,A,,5.8,,C,800.0,970.0,1045.0,,,,,,,,,,,,99
623,Couzinie_9,10.1016/j.jallcom.2015.08.224,AlCr1.5NbTiV,BCC+Laves,M,A,,5.8,,C,1000.0,75.0,105.0,,,,,,,,,,,,99
624,Couzinie_9,10.1016/j.jallcom.2015.08.224,AlCr1.5NbTiV,BCC+Laves,M,A,,5.8,,C,25.0,1700.0,1700.0,,,,,,,,,,,,99
625,Couzinie_9,10.1016/j.jallcom.2015.08.224,AlCrNbTiV,BCC+Laves,M,A,,5.7,,C,600.0,1015.0,1060.0,,,,,,,,,,,,99
626,Couzinie_9,10.1016/j.jallcom.2015.08.224,AlCrNbTiV,BCC+Laves,M,A,,5.7,,C,800.0,860.0,895.0,,,,,,,,,,,,99
627,Couzinie_9,10.1016/j.jallcom.2015.08.224,AlCrNbTiV,BCC+Laves,M,A,,5.7,,C,1000.0,65.0,95.0,,,,,,,,,,,,99
628,Couzinie_9,10.1016/j.jallcom.2015.08.224,AlCrNbTiV,BCC+Laves,M,A,,5.7,,C,25.0,1550.0,1570.0,,,,,,,,,,,,99
629,Couzinie_9,10.1016/j.jallcom.2015.08.224,AlNbTiV,BCC,S,A,,5.5,,C,600.0,780.0,1005.0,,,104.8,,,,,,,,,99
630,Couzinie_9,10.1016/j.jallcom.2015.08.224,AlNbTiV,BCC,S,A,,5.5,,C,800.0,560.0,700.0,,,,,,,,,,,,99
631,Couzinie_9,10.1016/j.jallcom.2015.08.224,AlNbTiV,BCC,S,A,,5.5,,C,1000.0,110.0,,,,,,,,,,,,,99
632,Couzinie_9,10.1016/j.jallcom.2015.08.224,AlNbTiV,BCC,S,A,,5.5,,C,25.0,1000.0,1280.0,,,,,,,,,,,,99
633,new_ref_2,10.1002/maco.201709833,AlCrFeNiMo0.5,BCC+B2,M,AC,,,623.7,C,25.0,1914.1,4023.6,27.9,,,,,,,,,,,214
634,new_ref_2,10.1002/maco.201709833,AlCrFeNiMo0.5Ti0.25,BCC+B2,M,AC,,,712,C,25.0,2161.7,3641.5,14.3,,,,,,,,,,,214
635,new_ref_2,10.1002/maco.201709833,AlCrFeNiMo0.5Ti0.4,BCC+B2,M,AC,,,731.9,C,25.0,2185.1,3673.4,14.8,,,,,,,,,,,214
636,new_ref_2,10.1002/maco.201709833,AlCrFeNiMo0.5Ti0.5,BCC+B2,M,AC,,,751.7,C,25.0,2228.7,3166.2,10.4,,,,,,,,,,,214
637,new_ref_2,10.1002/maco.201709833,AlCrFeNiMo0.5Ti0.6,BCC+B2,M,AC,,,756.1,C,25.0,1314.5,1314.5,,,,,,,,,,,,214
638,new_ref_2,10.1002/maco.201709833,AlCrFeNiMo0.5Ti0.75,BCC+B2,M,AC,,,766.2,C,25.0,618.8,618.8,,,,,,,,,,,,214
639,new_ref_4,10.1016/j.matdes.2018.06.003,AlCrMoNb,Laves (C14)+A15,M,A,,,,,,,,,,,,,,,,,,,215
640,new_ref_4,10.1016/j.matdes.2018.06.003,AlCrMoNb,Laves (C14)+A15,M,AC,,,,,,,,,,,,,,,,,,,215
641,new_ref_4,10.1016/j.matdes.2018.06.003,AlHfNbTi,B2,S,A,,,,,,,,,,,,,,,,,,,215
642,new_ref_4,10.1016/j.matdes.2018.06.003,AlHfNbTi,B2,S,AC,,,,,,,,,,,,,,,,,,,215
643,new_ref_4,10.1016/j.matdes.2018.06.003,AlHfTaTi,B2,S,A,,,,,,,,,,,,,,,,,,,215
644,new_ref_4,10.1016/j.matdes.2018.06.003,AlHfTaTi,B2,S,AC,,,,,,,,,,,,,,,,,,,215
645,new_ref_4,10.1016/j.matdes.2018.06.003,AlMoNbTi,BCC+A15,M,A,,,,,,,,,,,,,,,,,,,215
646,new_ref_4,10.1016/j.matdes.2018.06.003,AlMoNbTi,BCC,S,AC,,,509 $\pm$ 18,,,,,,,,,,,,,,,,215
647,new_ref_4,10.1016/j.matdes.2018.06.003,AlNbTaTi,BCC+A15,M,A,,,,,,,,,,,,,,,,,,,215
648,new_ref_4,10.1016/j.matdes.2018.06.003,AlNbTaTi,BCC,S,AC,,,458 $\pm$ 10,,,,,,,,,,,,,,,,215
649,new_ref_4,10.1016/j.matdes.2018.06.003,CrMoTaTi,BCC,S,A,,,555 $\pm$ 24,,,,,,,,,,,,,,,,215
650,new_ref_4,10.1016/j.matdes.2018.06.003,CrMoTaTi,BCC,S,AC,,,539 $\pm$ 32,,,,,,,,,,,,,,,,215
651,new_ref_4,10.1016/j.matdes.2018.06.003,CrNbTaTi,BCC+Laves (C15),M,A,,,,,,,,,,,,,,,,,,,215
652,new_ref_4,10.1016/j.matdes.2018.06.003,CrNbTaTi,BCC,S,AC,,,495 $\pm$ 26,,,,,,,,,,,,,,,,215
653,new_ref_4,10.1016/j.matdes.2018.06.003,CrNbTiW,BCC+Laves (C15),M,A,,,630 $\pm$ 28,,,,,,,,,,,,,,,,215
654,new_ref_4,10.1016/j.matdes.2018.06.003,CrNbTiW,BCC,S,AC,,,630 $\pm$ 24,,,,,,,,,,,,,,,,215
655,new_ref_4,10.1016/j.matdes.2018.06.003,HfNbTaTi,BCC,S,A,,,280 $\pm$ 10,,,,,,,,,,,,,,,,215
656,new_ref_4,10.1016/j.matdes.2018.06.003,HfNbTaTi,BCC,S,AC,,,270 $\pm$ 5,,,,,,,,,,,,,,,,215
657,new_ref_4,10.1016/j.matdes.2018.06.003,MoNbTaTiW,BCC,S,A,,,482 $\pm$ 10,,,,,,,,,,,,,,,,215
658,new_ref_4,10.1016/j.matdes.2018.06.003,MoNbTaTiW,BCC,S,AC,,,446 $\pm$ 32,,,,,,,,,,,,,,,,215
659,new_ref_4,10.1016/j.matdes.2018.06.003,MoNbTaTi,BCC,S,A,,,407 $\pm$ 17,,,,,,,,,,,,,,,,215
660,new_ref_4,10.1016/j.matdes.2018.06.003,MoNbTaTi,BCC,S,AC,,,431 $\pm$ 7,,,,,,,,,,,,,,,,215
0,J2,10.1016/j.scriptamat.2018.08.048,Al0.3CoCrFeNi,FCC + B2 + Sigma,M,CR + A,0.71 $\pm$ 0.35,,,T,25.0,900,1074,25,,,,,,,,,,,139
1,J3,10.1016/j.jallcom.2018.08.093,Fe40Mn25Cr20Ni15,FCC + BCC,M,AC,75,,,C,25.0,219,,,,,,,,,,,,,149
2,J3,10.1016/j.jallcom.2018.08.093,Fe40Mn25Cr20Ni15Al2,FCC + BCC,M,AC,,,,C,25.0,354,,,,,,,,,,,,,149
3,J3,10.1016/j.jallcom.2018.08.093,Fe40Mn25Cr20Ni15Al6,FCC + BCC,M,AC,,,,C,25.0,550,,,,,,,,,,,,,149
4,J3,10.1016/j.jallcom.2018.08.093,Fe40Mn25Cr20Ni15Al10,B2 + BCC,M,AC,175,,,C,25.0,994,,,,,,,,,,,,,149
5,J3,10.1016/j.jallcom.2018.08.093,Fe40Mn25Cr20Ni15Al14,B2 + BCC,M,AC,175,,,C,25.0,942,,,,,,,,,,,,,149
6,J3,10.1016/j.jallcom.2018.08.093,Fe40Mn25Cr20Ni15,FCC + BCC,M,AC,75,,,C,400.0,132,,,,,,,,,,,,,149
7,J3,10.1016/j.jallcom.2018.08.093,Fe40Mn25Cr20Ni15Al2,FCC + BCC,M,AC,,,,C,400.0,260,,,,,,,,,,,,,149
8,J3,10.1016/j.jallcom.2018.08.093,Fe40Mn25Cr20Ni15Al6,FCC + BCC,M,AC,,,,C,400.0,469,,,,,,,,,,,,,149
9,J3,10.1016/j.jallcom.2018.08.093,Fe40Mn25Cr20Ni15Al10,B2 + BCC,M,AC,175,,,C,400.0,943,,,,,,,,,,,,,149
10,J3,10.1016/j.jallcom.2018.08.093,Fe40Mn25Cr20Ni15Al14,B2 + BCC,M,AC,175,,,C,400.0,833,,,,,,,,,,,,,149
11,J3,10.1016/j.jallcom.2018.08.093,Fe40Mn25Cr20Ni15,FCC + BCC,M,AC,75,,,C,600.0,115,,,,,,,,,,,,,149
12,J3,10.1016/j.jallcom.2018.08.093,Fe40Mn25Cr20Ni15Al2,FCC + BCC,M,AC,,,,C,600.0,155,,,,,,,,,,,,,149
13,J3,10.1016/j.jallcom.2018.08.093,Fe40Mn25Cr20Ni15Al6,FCC + BCC,M,AC,,,,C,600.0,272,,,,,,,,,,,,,149
14,J3,10.1016/j.jallcom.2018.08.093,Fe40Mn25Cr20Ni15Al10,B2 + BCC,M,AC,175,,,C,600.0,359,,,,,,,,,,,,,149
15,J3,10.1016/j.jallcom.2018.08.093,Fe40Mn25Cr20Ni15Al14,B2 + BCC,M,AC,175,,,C,600.0,326,,,,,,,,,,,,,149
16,J4,10.1016/j.matchar.2018.06.036,CoCrFeMnNi,FCC,S,CR + A,4.4,,,T,25.0,370,670,56,,,,,,switched to engineering stress strain ,8,10.1016/j.actamat.2013.06.018,,https://doi.org/10.1016/j.actamat.2013.06.018,159
17,J4,10.1016/j.matchar.2018.06.036,Co10Cr10Fe50Mn30,FCC + HCP,M,A,45,,,T,25.0,250,730,50,,,,,,switched to engineering stress strain ,18,10.1016/j.actamat.2017.03.069,,,159
18,J4,10.1016/j.matchar.2018.06.036,Co10Cr10Fe50Mn30,FCC + HCP,M,CR + A,4.5,,,T,25.0,330,870,75,,,,,,switched to engineering stress strain ,18,10.1016/j.actamat.2017.03.069,,,159
19,J4,10.1016/j.matchar.2018.06.036,Co10Cr10Fe50Mn30,FCC + HCP,M,CR + A,6,,,T,25.0,280,800,65,,,,,,switched to engineering stress strain ,18,10.1016/j.actamat.2017.03.069,,,159
20,J4,10.1016/j.matchar.2018.06.036,Co10Cr10Fe50Mn30,FCC + HCP,M,CR + A,15,,,T,25.0,350,830,63,,,,,,switched to engineering stress strain ,18,10.1016/j.actamat.2017.03.069,,,159
21,J4,10.1016/j.matchar.2018.06.036,Co10Cr10Fe50Mn30,FCC + HCP,M,HR + A,6.5,,,T,25.0,298,1400,45,,,,,,removed true stress strain values,34,10.1038/s41598-017-16509-9,,,159
22,J4,10.1016/j.matchar.2018.06.036,Co10Cr10Fe50Mn30,FCC + HCP,M,HR + A,5.2,,,T,25.0,400,1200,42,,,,,,removed true stress strain values,34,10.1038/s41598-017-16509-9,,,159
23,J4,10.1016/j.matchar.2018.06.036,Al7Co23Cr23Fe23Ni23,FCC + B2,M,,0.7,,,T,25.0,860,1050,48,,,,,,"Data extracted from Table 6, does not belong in below data",60,10.1016/j.matlet.2017.04.072,,,159
24,J4,10.1016/j.matchar.2018.06.036,Al7Co23Cr23Fe23Ni23,FCC + B2,M,,2.7,,,T,25.0,690,930,51,,,,,,,60,10.1016/j.matlet.2017.04.072,,,159
25,J4,10.1016/j.matchar.2018.06.036,Al7Co23Cr23Fe23Ni23,FCC + B2,M,,3.8,,,T,25.0,550,800,64,,,,,,,60,10.1016/j.matlet.2017.04.072,,,159
26,J4,10.1016/j.matchar.2018.06.036,Al7Co23Cr23Fe23Ni23,FCC,S,,53,,,T,25.0,260,620,87,,,,,,,60,10.1016/j.matlet.2017.04.072,,,159
27,J4,10.1016/j.matchar.2018.06.036,Al7Co23Cr23Fe23Ni23,FCC + BCC,M,CR + A,,,,,,,,,,,,,,,60,10.1016/j.matlet.2017.04.072,,,159
28,J4,10.1016/j.matchar.2018.06.036,Al7Co23Cr23Fe23Ni23,FCC,S,CR + A,,,,,,,,,,,,,,,40,10.1016/j.scriptamat.2016.06.019,,,159
29,J4,10.1016/j.matchar.2018.06.036,Al7Co23Cr23Fe23Ni23,FCC + L12,M,CR + A,,,,,,,,,,,,,,,40,10.1016/j.scriptamat.2016.06.019,,,159
30,J4,10.1016/j.matchar.2018.06.036,Al7Co23Cr23Fe23Ni23,FCC + L12,M,CR + A,,,,,,,,,,,,,,,40,10.1016/j.scriptamat.2016.06.019,,,159
31,J4,10.1016/j.matchar.2018.06.036,Al7Co23Cr23Fe23Ni23,FCC,S,CR + A,144,,,T,25.0,159,410,65,,,,,,,39,10.1016/j.matdes.2017.02.072,,,159
32,J4,10.1016/j.matchar.2018.06.036,Al7Co23Cr23Fe23Ni23,FCC + B2,M,CR + A,144,,,T,25.0,215,520,43,,,,,,,39,10.1016/j.matdes.2017.02.072,,,159
33,J4,10.1016/j.matchar.2018.06.036,Al7Co23Cr23Fe23Ni23,FCC + L12,M,CR + A,144,,,T,25.0,285,540,55,,,,,,,39,10.1016/j.matdes.2017.02.072,,,159
34,J4,10.1016/j.matchar.2018.06.036,Al7Co23Cr23Fe23Ni23,FCC,S,CR + A,23,,,T,25.0,263,589,60,,,,,,,39,10.1016/j.matdes.2017.02.072,,,159
35,J4,10.1016/j.matchar.2018.06.036,Al7Co23Cr23Fe23Ni23,FCC + L12 + B2,M,CR + A,23,,,T,25.0,490,840,45,,,,,,,39,10.1016/j.matdes.2017.02.072,,,159
36,J4,10.1016/j.matchar.2018.06.036,Al7Co23Cr23Fe23Ni23,FCC,S,AC,,,,,,,,,,,,,,,57,10.1016/j.jallcom.2009.08.090,,,159
37,J4,10.1016/j.matchar.2018.06.036,Al7Co23Cr23Fe23Ni23,FCC + BCC,M,A,,,,,,,,,,,,,,,57,10.1016/j.jallcom.2009.08.090,,,159
38,J4,10.1016/j.matchar.2018.06.036,Al7Co23Cr23Fe23Ni23,FCC + BCC,M,A,,,,,,,,,,,,,,,61,10.1016/j.actamat.2017.03.066,,,159
39,J4,10.1016/j.matchar.2018.06.036,Al7Co23Cr23Fe23Ni23,FCC + L12,M,AC,,,,T,25.0,175,335,58,,,,,,Added and replaced data sets,62,10.1016/j.jallcom.2008.12.088,,,159
40,J4,10.1016/j.matchar.2018.06.036,Al7Co23Cr23Fe23Ni23,FCC + L12,M,A,,,,T,25.0,305,525,44,,,,,,,62,10.1016/j.jallcom.2008.12.088,,,159
41,J4,10.1016/j.matchar.2018.06.036,Al7Co23Cr23Fe23Ni23,FCC + B2,M,A,,,,T,25.0,280,570,44,,,,,,,62,10.1016/j.jallcom.2008.12.088,,,159
42,J4,10.1016/j.matchar.2018.06.036,Al7Co23Cr23Fe23Ni23,FCC,S,Aged,,,,,,,,,,,,,,,63,10.1016/j.jallcom.2013.11.084,,,159
43,J4,10.1016/j.matchar.2018.06.036,Al7Co23Cr23Fe23Ni23,FCC,S,Aged,,,,,,,,,,,,,,,63,10.1016/j.jallcom.2013.11.084,,,159
44,J4,10.1016/j.matchar.2018.06.036,Al7Co23Cr23Fe23Ni23,FCC + B2,M,Aged,,,,,,,,,,,,,,,64,10.1016/j.matdes.2016.05.079,,,159
45,J4,10.1016/j.matchar.2018.06.036,AlCoCrFeNi,BCC + B2,M,AC,,,,T,25.0,395,400,1,,,,,,I don't like this reference...,71,10.1016/j.jallcom.2017.03.307,,,159
46,J4,10.1016/j.matchar.2018.06.036,AlCoCrFeNi,BCC + B2,M,AC,,,,C,25.0,1380,,10,,,,,,,70,10.1016/j.jallcom.2016.05.034,,,159
47,J4,10.1016/j.matchar.2018.06.036,AlCoCrFeNi,BCC + $\sigma$ + B2 + FCC,M,A,,,,C,25.0,1430,,1.6,,,,,,,70,10.1016/j.jallcom.2016.05.034,,,159
48,J4,10.1016/j.matchar.2018.06.036,AlCoCrFeNi,BCC + B2 + FCC,M,A,,,,C,25.0,1690,,2.7,,,,,,,70,10.1016/j.jallcom.2016.05.034,,,159