,REFERENCE: tag,REFERENCE: doi,FORMULA,PROPERTY: Type of phases,PROPERTY: Single/Multiphase,PROPERTY: synthesis method,PROPERTY: grain size ($\mu$m),PROPERTY: ROM Density (g/cm$^3$),PROPERTY: HV,PROPERTY: Type of test,PROPERTY: Test temperature ($^\circ$C),PROPERTY: YS (MPa),PROPERTY: UTS (MPa),PROPERTY: Elongation (%),PROPERTY: Elongation plastic (%),PROPERTY: ROM Young modulus (GPa),PROPERTY: Exp. Young modulus (GPa),PROPERTY: O content (wppm),PROPERTY: N content (wppm),PROPERTY: C content (wppm),REFERENCE: comment,Internal Reference #,Original DOI,PROPERTY: Exp. Density (g/cm$^3$),Unnamed: 22,IDENTIFIER: Reference ID
622,J72,10.1016/j.actamat.2019.06.006,CrMoTaTi,BCC + Laves,M,A,,,,C,800.0,1162,,,,,,200.0,<5,,fixed yield strengths,,,,,239
623,J72,10.1016/j.actamat.2019.06.006,CrMoTaTi,BCC + Laves,M,A,,,,C,1000.0,1159,,,,,,200.0,<5,,fixed yield strengths,,,,,239
624,J74,10.1007/s40195-019-00921-3,Ti2ZrHf0.5V,BCC,S,AC,,,338.3,C,25.0,1160,,>50,,,,,,,,,,,,240
625,J74,10.1007/s40195-019-00921-3,Ti2ZrHf0.5V,BCC,S,AC,,,338.3,C,600.0,405,,>50,,,,,,,added high temperature data,,,,,240
626,J74,10.1007/s40195-019-00921-3,Ti2ZrHf0.5V,BCC,S,AC,,,338.3,C,800.0,85,,>50,,,,,,,added high temperature data,,,,,240
627,J74,10.1007/s40195-019-00921-3,Ti2ZrHf0.5VNb0.25,BCC,S,AC,,,332.4,C,25.0,1115,,>50,,,,,,,,,,,,240
628,J74,10.1007/s40195-019-00921-3,Ti2ZrHf0.5VNb0.5,BCC,S,AC,,,322.5,C,25.0,1065,,>50,,,,,,,,,,,,240
629,J74,10.1007/s40195-019-00921-3,Ti2ZrHf0.5VNb0.5,BCC,S,AC,,,322.5,C,600.0,718,,>50,,,,,,,added high temperature data,,,,,240
630,J74,10.1007/s40195-019-00921-3,Ti2ZrHf0.5VNb0.5,BCC,S,AC,,,322.5,C,800.0,135,,>50,,,,,,,added high temperature data,,,,,240
631,J74,10.1007/s40195-019-00921-3,Ti2ZrHf0.5VNb0.75,BCC,S,AC,,,318.9,C,25.0,1025,,>50,,,,,,,,,,,,240
632,J74,10.1007/s40195-019-00921-3,Ti2ZrHf0.5VNb,BCC,S,AC,,,310.4,C,25.0,980,,>50,,,,,,,,,,,,240
633,J74,10.1007/s40195-019-00921-3,Ti2ZrHf0.5VNb,BCC,S,AC,,,310.4,C,600.0,859,,>50,,,,,,,added high temperature data,,,,,240
634,J74,10.1007/s40195-019-00921-3,Ti2ZrHf0.5VNb,BCC,S,AC,,,310.4,C,800.0,195,,>50,,,,,,,added high temperature data,,,,,240
635,J75,10.1016/j.matchar.2019.05.043,FeCrCuMnNi,2FCC + BCC,M,CR,,,398,T,25.0,1190,1300,4.3,,,,,,,changed to 2FCC + BCC,,,,,241
636,J75,10.1016/j.matchar.2019.05.043,FeCrCuMnNi,2FCC + BCC,M,CR + A,1.4,,367,T,25.0,1170,1270,10.7,,,,,,,changed to 2FCC + BCC,,,,,241
637,J75,10.1016/j.matchar.2019.05.043,FeCrCuMnNi,2FCC + BCC,M,CR + A,1.5,,312,T,25.0,1030,1190,11.4,,,,,,,changed to 2FCC + BCC,,,,,241
638,J75,10.1016/j.matchar.2019.05.043,FeCrCuMnNi,2FCC + BCC,M,CR + A,1.9,,271,T,25.0,970,1110,12.1,,,,,,,changed to 2FCC + BCC,,,,,241
639,J75,10.1016/j.matchar.2019.05.043,FeCrCuMnNi,2FCC + BCC,M,CR + A,2.2,,183,T,25.0,850,960,14.3,,,,,,,changed to 2FCC + BCC,,,,,241
640,J75,10.1016/j.matchar.2019.05.043,FeCrCuMnNi,2FCC + BCC,M,CR + A,6.5,,162,T,25.0,470,640,34.8,,,,,,,changed to 2FCC + BCC,,,,,241
641,J76,10.1016/j.matlet.2019.04.012,CoCrFeNi2.1Nb0.2,FCC + Laves,M,AC,,,,T,25.0,170,537,32,,,,,,,,,,,,242
642,J76,10.1016/j.matlet.2019.04.012,CoCrFeNi2.1Nb0.4,FCC + Laves,M,AC,,,,T,25.0,640,840,7,,,,,,,,,,,,242
643,J76,10.1016/j.matlet.2019.04.012,CoCrFeNi2.1Nb0.2,FCC + Laves + D019,M,A,,,,T,25.0,560,860,19,,,,,,,,,,,,242
644,J76,10.1016/j.matlet.2019.04.012,CoCrFeNi2.1Nb0.4,FCC + Laves,M,A,,,,T,25.0,,,3,,,,,,,,,,,,242
645,J77,10.1007/s40195-019-00916-0,(CoCrFeMnNi)95C5,FCC + M23C6,M,A,,,345,C,800.0,,,,,,,,,,,,,,,243
646,J77,10.1007/s40195-019-00916-0,(CoCrFeMnNi)95C5,FCC + M23C6,M,A,,,285,C,1000.0,,,,,,,,,,,,,,,243
647,J78,10.1016/j.matchar.2019.05.022,AlCoCrFeNi,BCC + FCC,M,SPS,10.21,,550 $\pm$ 12,C,25.0,1221.1 $\pm$ 15,,30,23.2,,,,,,"changed elongation to total elongation, not plastic",,,,,244
648,J78,10.1016/j.matchar.2019.05.022,AlCoCrFeNi,BCC + FCC,M,SPS,15.68,,510 $\pm$ 11,C,25.0,1186.7 $\pm$ 16,,33,26.5,,,,,,"changed elongation to total elongation, not plastic",,,,,244
649,J78,10.1016/j.matchar.2019.05.022,AlCoCrFeNi,BCC + FCC,M,SPS,16.7,,503 $\pm$ 14,C,25.0,1112.9 $\pm$ 20,,30,21.4,,,,,,"changed elongation to total elongation, not plastic",,,,,244
650,J79,10.1007/s11837-019-03432-9,WMoNbCrTi,BCC + Laves,M,SPS,,,,C,25.0,2500,,10,,,,,,,Experimental Variable was ball milling time. ,,,,,245
651,J79,10.1007/s11837-019-03432-9,WMoNbCrTi,BCC + Laves,M,SPS,,,,C,25.0,1260,,4.8,,,,,,,Added Total Elongation Data from Fig 6,,,,,245
652,J79,10.1007/s11837-019-03432-9,WMoNbCrTi,BCC + Laves,M,SPS,,,,C,25.0,1630,,4.85,,,,,,,,,,,,245
653,J79,10.1007/s11837-019-03432-9,WMoNbCrTi,BCC + Laves,M,SPS,,,,C,25.0,2030,,4.3,,,,,,,,,,,,245
654,J79,10.1007/s11837-019-03432-9,WMoNbCrTi,BCC + Laves,M,SPS,,,,C,25.0,1920,,5,,,,,,,,,,,,245
655,J80,10.1088/2053-1591/ab2517,AlCoCrFeNi,BCC + B2,M,SPS,,,,C,25.0,,,,,,,,,,,,,,,247
656,J80,10.1088/2053-1591/ab2517,AlCoCrFeNi,BCC + B2,M,SPS,,,,C,25.0,,,,,,,,,,,,,,,247
657,J80,10.1088/2053-1591/ab2517,AlCoCrFeNi,BCC + B2 + FCC,M,SPS,,,,C,25.0,,,,,,,,,,,,,,,247
658,J80,10.1088/2053-1591/ab2517,AlCoCrFeNi,BCC + B2 + FCC,M,SPS,,,,C,25.0,,,,,,,,,,,,,,,247
659,J80,10.1088/2053-1591/ab2517,AlCoCrFeNi,BCC + B2 + FCC,M,SPS,,,,C,25.0,520,,,,,,,,,,,,,,247
660,J80,10.1088/2053-1591/ab2517,AlCoCrFeNi,BCC + B2 + FCC,M,SPS,,,,C,25.0,1150,,,,,,,,,,,,,,247
661,J80,10.1088/2053-1591/ab2517,AlCoCrFeNi,BCC + B2 + FCC,M,SPS,,,,C,25.0,1287,,,,,,,,,,,,,,247
662,J80,10.1088/2053-1591/ab2517,AlCoCrFeNi,BCC + B2 + FCC,M,SPS,,,,C,25.0,1286,,,,,,,,,,,,,,247
663,J80,10.1088/2053-1591/ab2517,AlCoCrFeNi,BCC + B2 + FCC,M,SPS,,,,C,25.0,1390,,,,,,,,,,,,,,247
664,J80,10.1088/2053-1591/ab2517,AlCoCrFeNi,BCC + B2 + FCC,M,SPS,,,,C,25.0,1626,,,,,,,,,,,,,,247
665,J81,10.1016/j.jallcom.2019.04.296,CrFeMnNi,FCC,S,,,,,,,,,,,,,,,,Skipped,,,,,248
666,J82,10.1016/j.msea.2019.138039,Fe40Mn40Co10Cr10,FCC,S,AC,,,,T,25.0,213,471,55.7,,,,,,,Added values for AC and F,,,,,249
667,J82,10.1016/j.msea.2019.138039,Fe40Mn40Co10Cr10,FCC,S,AC,,,,T,25.0,393,634,26.5,,,,,,,,,,,,249
668,J82,10.1016/j.msea.2019.138039,Fe40Mn40Co10Cr10,FCC,S,HF,,,,T,25.0,792,1055,22.6,,,,,,,,,,,,249
669,J82,10.1016/j.msea.2019.138039,Fe40Mn40Co10Cr10,FCC,S,HR + A,18,,,T,25.0,559,1004,33.9,,,,,,,,,,,,249
670,J82,10.1016/j.msea.2019.138039,Fe40Mn40Co10Cr10,FCC,S,HR + A,32,,,T,25.0,512,978,55.3,,,,,,,,,,,,249
671,J82,10.1016/j.msea.2019.138039,Fe40Mn40Co10Cr10,FCC,S,HR + A,63,,,T,25.0,476,947,69.4,,,,,,,,,,,,249
672,J84,10.1016/j.jallcom.2019.04.121,CrMnFeCoNi,FCC,S,CR + A,,,,T,25.0,353,635,,43,,,,,,Fixed with values from summary ,,,,,250
673,J84,10.1016/j.jallcom.2019.04.121,Cr19.68Mn19.68Fe19.68Co19.68Ni19.68Nb0.8C0.8,FCC + NbC,M,CR + A,,,,T,25.0,732,911,,32,,,,,,,,,,,250
674,J85,10.1016/j.matlet.2019.03.075,TiNbTa0.5ZrAl0.5,BCC + HCP,M,HF,,,,C,25.0,1500,,6,,,,,,,Changed AC to F,,,,,251
675,J85,10.1016/j.matlet.2019.03.075,TiNbTa0.5ZrAl0.5,BCC,M,S,,,,,,,,,,,,,,,Added Sintering Data,,,,,251
676,J85,10.1016/j.matlet.2019.03.075,TiNbTa0.5ZrAl0.5,BCC + HCP,M,HF + A,,,,C,25.0,1200,,8,,,,,,,,,,,,251
677,J85,10.1016/j.matlet.2019.03.075,TiNbTa0.5ZrAl0.5,BCC + HCP,M,HF + A,,,,C,25.0,2100,,12,,,,,,,,,,,,251
678,J85,10.1016/j.matlet.2019.03.075,TiNbTa0.5ZrAl0.5,BCC + HCP,M,HF + A,,,,C,25.0,1740,,20,,,,,,,,,,,,251
679,J85,10.1016/j.matlet.2019.03.075,TiNbTa0.5ZrAl0.5,BCC + HCP,M,HF + A,,,,C,25.0,1630,,12,,,,,,,,,,,,251
680,J86,10.1007/s10853-019-03567-9,NbTaWMo,BCC,S,SPS,,,504.5,C,25.0,1217,,7.5,3.8,,,,,,Fixed Elongation Values from Fracture Strain to Engineering Strain,,,,,252
681,J86,10.1007/s10853-019-03567-9,NbTaWMoSi0.25,BCC + Silicide,M,SPS,,,567,C,25.0,1826,,16.5,10.5,,,,,,,,,,,252
682,J86,10.1007/s10853-019-03567-9,NbTaWMoSi0.5,BCC + Silicide,M,SPS,,,697,C,25.0,1883,,11,5.8,,,,,,,,,,,252
683,J86,10.1007/s10853-019-03567-9,NbTaWMoSi0.75,BCC + Silicide,M,SPS,,,682.6,C,25.0,2483,,6.2,1.6,,,,,,,,,,,252
684,J86,10.1007/s10853-019-03567-9,NbTaWMo,BCC,S,SPS,,,420,,200.0,,,,,,,,,,"Tests focused on HV, not mechanical stress",,,,,252
685,J86,10.1007/s10853-019-03567-9,NbTaWMoSi0.25,BCC + Silicide,M,SPS,,,425,,200.0,,,,,,,,,,,,,,,252
686,J86,10.1007/s10853-019-03567-9,NbTaWMoSi0.5,BCC + Silicide,M,SPS,,,535,,200.0,,,,,,,,,,,,,,,252
687,J86,10.1007/s10853-019-03567-9,NbTaWMoSi0.75,BCC + Silicide,M,SPS,,,640,,200.0,,,,,,,,,,,,,,,252
688,J86,10.1007/s10853-019-03567-9,NbTaWMo,BCC,S,SPS,,,425,,400.0,,,,,,,,,,,,,,,252
689,J86,10.1007/s10853-019-03567-9,NbTaWMoSi0.25,BCC + Silicide,M,SPS,,,420,,400.0,,,,,,,,,,,,,,,252
690,J86,10.1007/s10853-019-03567-9,NbTaWMoSi0.5,BCC + Silicide,M,SPS,,,560,,400.0,,,,,,,,,,,,,,,252
691,J86,10.1007/s10853-019-03567-9,NbTaWMoSi0.75,BCC + Silicide,M,SPS,,,600,,400.0,,,,,,,,,,,,,,,252
692,J86,10.1007/s10853-019-03567-9,NbTaWMo,BCC,S,SPS,,,340,,600.0,,,,,,,,,,,,,,,252
693,J86,10.1007/s10853-019-03567-9,NbTaWMoSi0.25,BCC + Silicide,M,SPS,,,425,,600.0,,,,,,,,,,,,,,,252
694,J86,10.1007/s10853-019-03567-9,NbTaWMoSi0.5,BCC + Silicide,M,SPS,,,540,,600.0,,,,,,,,,,,,,,,252
695,J86,10.1007/s10853-019-03567-9,NbTaWMoSi0.75,BCC + Silicide,M,SPS,,,650,,600.0,,,,,,,,,,,,,,,252
696,J86,10.1007/s10853-019-03567-9,NbTaWMo,BCC,S,SPS,,,335.5,,800.0,,,,,,,,,,,,,,,252
697,J86,10.1007/s10853-019-03567-9,NbTaWMoSi0.25,BCC + Silicide,M,SPS,,,399.2,,800.0,,,,,,,,,,,,,,,252
698,J86,10.1007/s10853-019-03567-9,NbTaWMoSi0.5,BCC + Silicide,M,SPS,,,550.5,,800.0,,,,,,,,,,,,,,,252
699,J86,10.1007/s10853-019-03567-9,NbTaWMoSi0.75,BCC + Silicide,M,SPS,,,597.3,,800.0,,,,,,,,,,,,,,,252
700,J86,10.1007/s10853-019-03567-9,NbTaWMoSi0.75,BCC + Silicide,M,SPS,,,,C,1200.0,960,,22.7,,,,,,,Added Engineering Values from Fig 5,,,,,252
701,J87,10.1007/s11661-019-05231-y,FeCoCrNiMn,FCC,S,CR,,,,T,25.0,1199.26,1335.35,4.37,,,,,,,,,,,,253
702,J87,10.1007/s11661-019-05231-y,FeCoCrNiMn,FCC,S,CR + A,,,,T,25.0,1269.23,1366.3,1.16,,,,,,,,,,,,253
703,J87,10.1007/s11661-019-05231-y,FeCoCrNiMn,FCC,S,CR + A,,,,T,25.0,1371.21,1402.83,1.58,,,,,,,,,,,,253
704,J87,10.1007/s11661-019-05231-y,FeCoCrNiMn,FCC,S,CR + A,0.166,,,T,25.0,1362.74,1471.05,3.15,,,,,,,,,,,,253
705,J87,10.1007/s11661-019-05231-y,FeCoCrNiMn,FCC,S,CR + A,0.248,,,T,25.0,1241.81,1325.25,4.31,,,,,,,,,,,,253
706,J87,10.1007/s11661-019-05231-y,FeCoCrNiMn,FCC,S,CR + A,0.468,,,T,25.0,930.3,1021.32,19.01,,,,,,,,,,,,253
707,J87,10.1007/s11661-019-05231-y,FeCoCrNiMn,FCC,S,CR + A,1.79,,,T,25.0,729.21,901.74,26.3,,,,,,,,,,,,253
708,J87,10.1007/s11661-019-05231-y,FeCoCrNiMn,FCC,S,CR + A,4.57,,,T,25.0,494.82,735.6,38.7,,,,,,,,,,,,253
709,J87,10.1007/s11661-019-05231-y,FeCoCrNiMn,FCC,S,CR + A,13.45,,,T,25.0,366.88,673.25,42.55,,,,,,,,,,,,253
710,J87,10.1007/s11661-019-05231-y,FeCoCrNiMn,FCC,S,CR + A,22.37,,,T,25.0,290.65,618.51,43.15,,,,,,,,,,,,253
711,J87,10.1007/s11661-019-05231-y,FeCoCrNiMn,FCC,S,CR + A,30.6,,,T,25.0,258.76,598.75,45.05,,,,,,,,,,,,253
712,J88,10.1016/j.vacuum.2019.04.043,FeCoCrNiMnTi0.1C0.1,FCC + TiMnO3 + M23C6 + M7C3,M,VHP,,,457 $\pm$ 2,C,25.0,1616 $\pm$ 27,,,4.5 $\pm$ 0.3,,,,,,Vacuum Hot Press Sintering,,,7.5,,254
713,J88,10.1016/j.vacuum.2019.04.043,FeCoCrNiMnTi0.1C0.1,FCC + TiMnO3 + M23C6 + M7C3,M,VHP,,,461 $\pm$ 3,C,25.0,1652 $\pm$ 16,,,10 $\pm$ 0.5,,,,,,Added HV and Density values from Table 2,,,7.64,,254
714,J88,10.1016/j.vacuum.2019.04.043,FeCoCrNiMnTi0.1C0.1,FCC + TiMnO3 + M23C6 + M7C3,M,VHP,,,428 $\pm$ 3,C,25.0,1490 $\pm$ 11,,,11.4 $\pm$ 0.5,,,,,,,,,7.66,,254
715,J88,10.1016/j.vacuum.2019.04.043,FeCoCrNiMnTi0.1C0.1,FCC + TiMnO3 + M23C6 + M7C3,M,VHP,,,378 $\pm$ 4,C,25.0,1194 $\pm$ 9,,,20.1 $\pm$ 0.7,,,,,,,,,7.69,,254
716,J90-32,10.1016/j.intermet.2012.03.005,CoCrFeNi,FCC,S,,,,,,,,,,,,,,,,"Large list, varied in data points",32.0,10.1016/j.intermet.2012.03.005,,,256
717,J90-32,10.1016/j.intermet.2012.03.005,CoCrFeNiAl0.5,FCC + BCC,M,,,,250,,,,,,,,,,,,come from a variety of references,32.0,10.1016/j.intermet.2012.03.005,,,256
718,J90-32,10.1016/j.intermet.2012.03.005,CoCrFeNiAl,BCC,S,,,,500,,,,,,,,,,,,,32.0,10.1016/j.intermet.2012.03.005,,,256
719,J90-32,10.1016/j.intermet.2012.03.005,CoCrFeNiAl2,BCC,S,,,,733,,,,,,,,,,,,,32.0,10.1016/j.intermet.2012.03.005,,,256
720,J90-35,10.1016/j.msea.2013.12.096,CoFeNiAl0.5Ti0.5,FCC,S,,,,733,,,,,,,,,,,,,35.0,10.1016/j.msea.2013.12.096,,,257
721,J90-35,10.1016/j.msea.2013.12.096,CrCoFeNiAl0.5Ti0.5,FCC + BCC,M,,,,640,,,,,,,,,,,,,35.0,10.1016/j.msea.2013.12.096,,,257
722,J90-36,10.4028/www.scientific.net/MSF.846.13,Al0.5FeCrNiMnCoTa0,,,,,,,,,,,,,,,,,,,36.0,10.4028/www.scientific.net/MSF.846.13,,,258
723,J90-36,10.4028/www.scientific.net/MSF.846.13,Al0.5FeCrNiMnCoTa0.2,FCC + BCC + laves,M,,,,385,,,,,,,,,,,,,36.0,10.4028/www.scientific.net/MSF.846.13,,,258
724,J90-36,10.4028/www.scientific.net/MSF.846.13,Al0.5FeCrNiMnCoTa0.4,FCC + BCC + laves,M,,,,486,,,,,,,,,,,,,36.0,10.4028/www.scientific.net/MSF.846.13,,,258
725,J90-36,10.4028/www.scientific.net/MSF.846.13,Al0.55FeCrNiMnCoTa0.6,FCC + BCC + laves + IM,M,,,,570,,,,,,,,,,,,,36.0,10.4028/www.scientific.net/MSF.846.13,,,258
726,J90-36,10.4028/www.scientific.net/MSF.846.13,FeCrNiMnCoTa0,FCC + BCC,M,,,,,,,,,,,,,,,,,36.0,10.4028/www.scientific.net/MSF.846.13,,,258
727,J90-36,10.4028/www.scientific.net/MSF.846.13,FeCrNiMnCoTa0.2,FCC + BCC,M,,,,200,,,,,,,,,,,,,36.0,10.4028/www.scientific.net/MSF.846.13,,,258
728,J90-36,10.4028/www.scientific.net/MSF.846.13,FeCrNiMnCoTa0.4,FCC + BCC,M,,,,290,,,,,,,,,,,,,36.0,10.4028/www.scientific.net/MSF.846.13,,,258
729,J90-36,10.4028/www.scientific.net/MSF.846.13,FeCrNiMnCoTa0.6,FCC + BCC,M,,,,345,,,,,,,,,,,,,36.0,10.4028/www.scientific.net/MSF.846.13,,,258
730,J90-39,10.1016/j.jallcom.2010.02.032,Al0.3CoCrFeNi,FCC,S,,,,160,,,,,,,,,,,,,39.0,10.1016/j.jallcom.2010.02.032,,,259
731,J90-39,10.1016/j.jallcom.2010.02.032,Al0.3CoCrFeNiMo0.1,FCC,S,,,,200,,,,,,,,,,,,,39.0,10.1016/j.jallcom.2010.02.032,,,259
732,J90,10.1016/j.msea.2019.05.056,Al5Cr12Fe35Mn28Ni20,FCC,S,AC,,,,T,25.0,280,556,48,48.2,,,,,,actually made by the paper,,This Paper,,,255
733,J90,10.1016/j.msea.2019.05.056,Al10Cr12Fe35Mn23Ni20,FCC,S,CR,,,,T,25.0,320,625,42.2,42.45,,,,,,,,This Paper,,,255
734,J90,10.1016/j.msea.2019.05.056,Al5Cr12Fe35Mn28Ni20,FCC,S,AC,,,,T,25.0,1253,1392,6.78,8.2,,,,,,,,This Paper,,,255
735,J90,10.1016/j.msea.2019.05.056,Al10Cr12Fe35Mn23Ni20,FCC,S,CR,,,,T,25.0,1400,1500,5.83,7.85,,,,,,,,This Paper,,,255
736,J91,10.1016/j.msea.2019.04.096,CoCuFeMnNi,FCC,S,AC,,,,,800.0,,,,,,,,,,,,,,,260
737,J91,10.1016/j.msea.2019.04.096,CoCuFeMnNi,FCC,S,AC,,,,,900.0,,,,,,,,,,,,,,,260
738,J91,10.1016/j.msea.2019.04.096,CoCuFeMnNi,FCC,S,AC,,,,,100.0,,,,,,,,,,,,,,,260
739,J92,10.1016/j.msea.2019.05.078,CoCrFeNiMo0.15,FCC,S,AC,,,,T,25.0,489 $\pm$ 2,895 $\pm$ 10,,53.6 $\pm$ 0.7,,,,,,,,,,,261
740,J92,10.1016/j.msea.2019.05.078,CoCrFeNiMo0.15,,,CR+A,,,,T,25.0,873 $\pm$ 27,,,23.4 $\pm$ 1.1,,,,,,CR,,,,,261
741,J92,10.1016/j.msea.2019.05.078,CoCrFeNiMo0.15,,,CR+A,,,,T,25.0,952 $\pm$ 35,1122 $\pm$ 17,,14.2 $\pm$ 0.5,,,,,,,,,,,261
742,J92,10.1016/j.msea.2019.05.078,CoCrFeNiMo0.15,FCC,S,CR+A,,,,T,25.0,1136 $\pm$ 3,1245 $\pm$ 0.8,,8.7 $\pm$ 0.7,,,,,,,,,,,261
743,J92,10.1016/j.msea.2019.05.078,CoCrFeNiMo0.15,FCC,S,CR+A,,,,T,25.0,1301 $\pm$ 28,1493 $\pm$ 30,,7.2 $\pm$ 0.5,,,,,,,,,,,261
744,J92,10.1016/j.msea.2019.05.078,CoCrFeNiMo0.15,,,CR+A,,,,T,25.0,1311 $\pm$ 14,1421 $\pm$ 27,,5.9 $\pm$ 0.3,,,,,,,,,,,261
745,J92,10.1016/j.msea.2019.05.078,CoCrFeNiMo0.15,,,CR+A,,,,T,25.0,1273 $\pm$ 16,1458 $\pm$ 28,,5.5 $\pm$ 0.4,,,,,,,,,,,261
746,J93,10.1016/j.msea.2019.05.003,CuNi1.01Si0.28Co0.14Cr0.45,,M,CR+A,,,142.5,T,25.0,777,810,3.4,,,,,,,added multiphase,,,,,262
747,J93,10.1016/j.msea.2019.05.003,CuNi1.01Si0.28Co0.14Cr0.45,,M,CR+A,,,147.4,,,,,,,,,,,,added multiphase,,,,,262
748,J93,10.1016/j.msea.2019.05.003,CuNi1.01Si0.28Co0.14Cr0.45,,M,CR+A,,,155.2,,,,,,,,,,,,added multiphase,,,,,262
749,J95,10.1038/s41467-019-10533-1,Co33W07Al33Nb24Cr03,,,AC,,,1084,,25.0,,,,,,,,,,,,,,,263
750,J95,10.1038/s41467-019-10533-1,Ti18Ni24Ta12Cr22Co24,,,AC,,,1011,,25.0,,,,,,,,,,,,,,,263
751,J95,10.1038/s41467-019-10533-1,Co6W9Al36Mo38Ni11,,,AC,,,725,,25.0,,,,,,,,,,,,,,,263
752,J95,10.1038/s41467-019-10533-1,Ni47Co02Ta12Ti9Nb30,,,AC,,,815,,25.0,,,,,,,,,,,,,,,263
753,J95,10.1038/s41467-019-10533-1,Ti44Ni02Nb21Cr21Co12,,,AC,,,422,,25.0,,,,,,,,,,,,,,,263
754,J95,10.1038/s41467-019-10533-1,Ti32Nb9Ta01Cr19Co39,,,AC,,,856,,25.0,,,,,,,,,,,,,,,263
755,J95,10.1038/s41467-019-10533-1,Ti39W04Nb31Ta04Co22,,,AC,,,277,,25.0,,,,,,,,,,,,,,,263
756,J98,10.1016/j.jmst.2018.12.014,AlCoCuFeNi0.5,FCC + BCC + B2,M,AC,,,430.9,C,25.0,929,,13.7,,,,,,,,,,,,264
757,J98,10.1016/j.jmst.2018.12.014,AlCoCuFeNi0.8,FCC + BCC + B2,M,AC,,,420,C,25.0,1021,,12.3,,,,,,,,,,,,264
758,J98,10.1016/j.jmst.2018.12.014,AlCoCuFeNi,FCC + BCC + B2,M,AC,,,391.4,C,25.0,994,,24.5,,,,,,,,,,,,264
759,J98,10.1016/j.jmst.2018.12.014,AlCoCuFeNi1.5,FCC + BCC + B2,M,AC,,,323.8,C,25.0,680,,35.9,,,,,,,,,,,,264
760,J98,10.1016/j.jmst.2018.12.014,AlCoCuFeNi2,FCC + BCC + B2,M,AC,,,299.2,C,25.0,544,,,,,,,,,,,,,,264
761,J98,10.1016/j.jmst.2018.12.014,AlCoCuFeNi3,FCC,S,AC,,,279.6,C,25.0,268,,,,,,,,,,,,,,264
762,J100,10.1016/j.msea.2019.04.104,Al0.5CrFeMnNi,BCC + B2,M,AC,,,353,C,25.0,1091,,50,,,,,,,,,,,,99
763,J100,10.1016/j.msea.2019.04.104,Al0.6CrFeMnNi,BCC + B2,M,AC,,,361,C,25.0,1130,,53,,,,,,,,,,,,99
764,J100,10.1016/j.msea.2019.04.104,Al0.7CrFeMnNi,BCC + B2,M,AC,,,375,C,25.0,1170,,55,,,,,,,,,,,,99
765,J100,10.1016/j.msea.2019.04.104,Al0.8CrFeMnNi,BCC + B2,M,AC,,,386,C,25.0,1200,,55,,,,,,,,,,,,99
766,J102,10.1016/j.jmmm.2019.01.096,FeCoNiCr0.2Si0.2,FCC,S,AC,,,130.1,T,25.0,225,732,61,,,,,,,,,,,,100
767,J102,10.1016/j.jmmm.2019.01.096,FeCoNiCr0.2Si0.2,FCC,S,HR,,,318.2,T,25.0,705,1070,10,,,,,,,changed processing to hot rolling,,,,,100
768,J102,10.1016/j.jmmm.2019.01.096,FeCoNiCr0.2Si0.2,FCC,S,HR + A,,,153.8,T,25.0,320,920,60,,,,,,,changed processing to hot rolling,,,,,100
769,J105,10.1038/s41598-019-43329-w,Al65Cu5Mg5Si15Zn5Fe5,FCC,S,AC,,,,C,25.0,422 $\pm$ 75,,1,,,88.7 $\pm$ 0.4,,,,,,,3.08,,101
770,J105,10.1038/s41598-019-43329-w,Al65Cu5Mg5Si15Zn5Ni5,FCC,S,AC,,,,C,25.0,534 $\pm$ 4,,1,,,107.8 $\pm$ 17,,,,,,,3.15,,101
771,J105,10.1038/s41598-019-43329-w,Al65Cu5Mg5Si15Zn5Cr5,FCC,S,AC,,,,C,25.0,490 $\pm$ 18,,6,,,78.4 $\pm$ 3,,,,,,,3.06,,101
772,J105,10.1038/s41598-019-43329-w,Al65Cu5Mg5Si15Zn5Mn5,FCC,S,AC,,,,C,25.0,622 $\pm$ 15,,2,,,114.1 $\pm$ 2,,,,,,,2.98,,101
773,J105,10.1038/s41598-019-43329-w,Al65Cu5Mg5Si15Zn5Zr5,FCC + Laves,M,AC,,,,C,25.0,565 $\pm$ 79,,4,,,105.1 $\pm$ 27,,,,,,,3.06,,101
774,J106,10.3390/e21050448,CoCrFeNiMo0.2,FCC,S,AC,,,,T,25.0,400,780,53,,,,,,,"For some reason, missing Yield Strength data",,,,,102
775,J106,10.3390/e21050448,CoCrFeNiMo0.2,FCC,S,A,,,,T,25.0,,838,43,,,,,,,,,,,,102
776,J106,10.3390/e21050448,CoCrFeNiMo0.2,FCC,S,A,,,,T,25.0,,899,31,,,,,,,,,,,,102
777,J106,10.3390/e21050448,CoCrFeNiMo0.2,FCC,S,A,,,,T,25.0,,902,29,,,,,,,,,,,,102
778,J106,10.3390/e21050448,CoCrFeNiMo0.2,FCC,S,A,,,,T,25.0,,811,52,,,,,,,,,,,,102
779,J106,10.3390/e21050448,CoCrFeNiMo0.2,FCC,S,A,,,,T,25.0,,790,49,,,,,,,,,,,,102
780,J106,10.3390/e21050448,CoCrFeNiMo0.2,FCC,S,A,,,,T,25.0,,799,47,,,,,,,,,,,,102
781,J106,10.3390/e21050448,CoCrFeNiMo0.2,FCC,S,A,,,,T,25.0,,802,37,,,,,,,,,,,,102
782,J106,10.3390/e21050448,CoCrFeNiMo0.2,FCC,S,A,,,,T,25.0,,823,36,,,,,,,,,,,,102
783,J106,10.3390/e21050448,CoCrFeNiMo0.2,FCC,S,A,,,,T,25.0,,849,34,,,,,,,,,,,,102
784,J106,10.3390/e21050448,CoCrFeNiMo0.2,FCC,S,A,,,,T,25.0,,895,32,,,,,,,,,,,,102
785,J107,10.3390/ma12071136,Al19.9Li30Mg35Si10Ca5Y0.1,,M,AC,,,,C,25.0,556,,3,,,,,,,changed to multiphase,,,1.7,,103
786,J107,10.3390/ma12071136,Al15Li35Mg35Ca10Si5,,M,AC,,,,C,25.0,418,,13,,,,,,,changed to multiphase,,,1.57,,103
787,J107,10.3390/ma12071136,Al15Li38Mg48Ca1 Si1,,M,AC,,,,C,25.0,360,,9,,,,,,,corrected the name; changed to multiphase,,,1.52,,103
788,J107,10.3390/ma12071136,Al15Li38Mg45Ca0.5Si1.5,,M,AC,,,,C,25.0,342,,44,,,,,,,changed to multiphase,,,1.5,,103
789,J107,10.3390/ma12071136,Al15Li39Mg45Ca0.5Si0.5,,M,AC,,,,C,25.0,300,,63,,,,,,,changed to multiphase,,,1.46,,103
790,J109,10.3390/e21030288,CoCrFeNiPd,FCC,S,AC,,,295,,,,,,,,,,,,,,,,,104
791,J109,10.3390/e21030288,CoCrFeNiPdMn0.2,FCC + IM,M,AC,,,470,C,25.0,650,,50,,,,,,,changed to multiphase,,,,,104