,REFERENCE: tag,REFERENCE: doi,FORMULA,PROPERTY: Type of phases,PROPERTY: Single/Multiphase,PROPERTY: synthesis method,PROPERTY: grain size ($\mu$m),PROPERTY: ROM Density (g/cm$^3$),PROPERTY: HV,PROPERTY: Type of test,PROPERTY: Test temperature ($^\circ$C),PROPERTY: YS (MPa),PROPERTY: UTS (MPa),PROPERTY: Elongation (%),PROPERTY: Elongation plastic (%),PROPERTY: ROM Young modulus (GPa),PROPERTY: Exp. Young modulus (GPa),PROPERTY: O content (wppm),PROPERTY: N content (wppm),PROPERTY: C content (wppm),REFERENCE: comment,Internal Reference #,Original DOI,PROPERTY: Exp. Density (g/cm$^3$),Unnamed: 22,IDENTIFIER: Reference ID
534,Couzinie_31,10.4028/www.scientific.net/MSF.849.76,HfNbSi0.5TiVZr,BCC+Laves+M5Si3,M,A,,7.5,,C,600.0,597.0,651.0,>50,,,,,,,,,,,,78
535,Couzinie_31,10.4028/www.scientific.net/MSF.849.76,HfNbSi0.5TiVZr,BCC+Laves+M5Si3,M,A,,7.5,,C,800.0,102.0,107.0,>50,,,,,,,,,,,,78
536,Couzinie_31,10.4028/www.scientific.net/MSF.849.76,HfNbSi0.5TiVZr,BCC+Laves+M5Si3,M,A,,7.5,,C,25.0,1483.0,1611.0,9.5,,,,,,,,,,,,78
537,Couzinie_31,10.4028/www.scientific.net/MSF.849.76,HfNbSi0.5TiVZr,BCC+Laves+M5Si3,M,AC,,7.5,,C,600.0,920.0,1252.0,>50,,,,,,,,,,,,78
538,Couzinie_31,10.4028/www.scientific.net/MSF.849.76,HfNbSi0.5TiVZr,BCC+Laves+M5Si3,M,AC,,7.5,,C,800.0,371.0,427.0,>50,,,,,,,,,,,,78
539,Couzinie_31,10.4028/www.scientific.net/MSF.849.76,HfNbSi0.5TiVZr,BCC+Laves+M5Si3,M,AC,,7.5,,C,25.0,1540.0,1643.0,16.8,,,,,,,,,,,,78
540,Couzinie_32,10.1016/j.actamat.2017.09.035,HfNbTaTiZr,BCC,S,SPD,0.05,9.9,420.0,T,25.0,1900.0,,7.9,,110.6,,,,,,,,,,79
541,Couzinie_32,10.1016/j.actamat.2017.09.035,HfNbTaTiZr,BCC+HCP,M,SPD+A,0.05,9.9,530.0,T,25.0,1520.0,,1.7,,,,,,,,,,,,79
542,Couzinie_32,10.1016/j.actamat.2017.09.035,HfNbTaTiZr,BCC+BCC+HCP,M,SPD+A,0.1,9.9,340.0,T,25.0,795.0,,5,,,,,,,,,,,,79
543,Couzinie_32,10.1016/j.actamat.2017.09.035,HfNbTaTiZr,BCC,S,CR+A,100,9.9,309.0,T,25.0,830.0,840.0,9.2,,110.6,,,,,,,,,,79
544,Couzinie_33,10.1016/j.jallcom.2015.07.209,HfNbTaTiZr,BCC,S,CR,,9.9,366.0,T,25.0,1202.0,1295.0,4.7,,110.6,,,,,,,,,,80
545,Couzinie_33,10.1016/j.jallcom.2015.07.209,HfNbTaTiZr,BCC+BCC,M,CR+A,,9.9,,T,25.0,1303.0,1334.0,,,,,,,,,,,,,80
546,Couzinie_33,10.1016/j.jallcom.2015.07.209,HfNbTaTiZr,BCC,S,CR+A,,9.9,351.0,T,25.0,1145.0,1262.0,9.7,,110.6,,,,,,,,,,80
547,Couzinie_34,10.1016/j.matlet.2016.08.060,HfNbTaTiZr,BCC,S,CR+A,,9.9,,T,25.0,958.0,974.0,,,110.6,,,,,,,,,,81
548,Couzinie_34,10.1016/j.matlet.2016.08.060,HfNbTaTiZr,BCC,S,CR+A,,9.9,,T,25.0,944.0,959.0,,,110.6,,,,,,,,,,81
549,Couzinie_34,10.1016/j.matlet.2016.08.060,HfNbTaTiZr,BCC,S,CR+A,,9.9,,T,25.0,940.0,953.0,,,110.6,,,,,,,,,,81
550,Couzinie_35,10.1016/j.actamat.2017.09.062,HfNbTaTiZr,BCC,S,CR+A,,9.9,,T,25.0,940.0,1080.0,,,110.6,,,,,,,,,,82
551,Couzinie_37,10.1016/j.msea.2015.08.024,HfNbTaTiZr,BCC,S,AC,,9.9,,C,25.0,905.0,,,,110.6,,,,,,,,,,83
552,Couzinie_38,10.1016/j.matchar.2015.11.018,HfNbTaTiZr,BCC,S,AC,,9.9,,C,25.0,890.0,,,,110.6,,,,,,,,,,84
553,Couzinie_39,10.1016/j.msea.2015.12.017,HfNbTaTiZr,BCC,S,AC,,9.9,,T,25.0,828.0,862.0,,,110.6,,,,,,,,,,85
554,Couzinie_39,10.1016/j.msea.2015.12.017,HfNbTaTiZr,BCC,S,AC,,9.9,,T,25.0,827.0,856.0,,,110.6,,,,,,,,,,85
555,Couzinie_39,10.1016/j.msea.2015.12.017,HfNbTaTiZr,BCC,S,AC,,9.9,,T,25.0,820.0,869.0,,,110.6,,,,,,,,,,85
556,Couzinie_39,10.1016/j.msea.2015.12.017,HfNbTaTiZr,BCC,S,AC,,9.9,,T,25.0,803.0,810.0,,,110.6,,,,,,,,,,85
557,Couzinie_4,10.4028/www.scientific.net/MSF.898.638,Al0.2MoTaTiV,BCC,S,AC,,9.2,,C,25.0,1021.0,1249.0,,,184.0,,,,,,,,,,86
558,Couzinie_4,10.4028/www.scientific.net/MSF.898.638,Al0.6MoTaTiV,BCC,S,AC,,8.6,,C,25.0,962.0,1033.0,,,174.1,,,,,,,,,,86
559,Couzinie_4,10.4028/www.scientific.net/MSF.898.638,AlMoTaTiV,BCC,S,AC,,8.2,,C,25.0,,735.0,,,165.8,,,,,,,,,,86
560,Couzinie_4,10.4028/www.scientific.net/MSF.898.638,MoTaTiV,BCC,S,AC,,9.5,,C,25.0,1221.0,1454.0,,,189.8,,,,,,,,,,86
561,Couzinie_41,10.1016/j.actamat.2016.01.018,HfNbTaZr,BCC+HCP,M,A,,11.1,571.0,C,25.0,2310.0,,0.3,,,,,,,,,,,,87
562,Couzinie_41,10.1016/j.actamat.2016.01.018,HfNbTaZr,BCC+HCP,M,A,,11.1,536.0,C,25.0,2100.0,2200.0,3.5,,,,,,,,,,,,87
563,Couzinie_41,10.1016/j.actamat.2016.01.018,HfNbTaZr,BCC+HCP,M,A,,11.1,,C,25.0,2020.0,2030.0,1.7,,,,,,,,,,,,87
564,Couzinie_41,10.1016/j.actamat.2016.01.018,HfNbTaZr,BCC+HCP,M,A,,11.1,550.0,C,25.0,1950.0,2010.0,2.2,,,,,,,,,,,,87
565,Couzinie_41,10.1016/j.actamat.2016.01.018,HfNbTaZr,BCC,S,AC,,11.1,365.0,C,25.0,1315.0,1800.0,21.6,,109.3,,,,,,,,,,87
566,Couzinie_43,10.1002/adma.201701678,HfTa0.4TiZr,BCC+HCP,M,AC,,9.2,,T,25.0,400.0,1100.0,,,,,,,,,,,,,88
567,Couzinie_43,10.1002/adma.201701678,HfTa0.5TiZr,BCC+HCP,M,AC,,9.4,,T,25.0,700.0,1100.0,,,,,,,,,,,,,88
568,Couzinie_43,10.1002/adma.201701678,HfTa0.6TiZr,BCC+HCP,M,AC,,9.6,,T,25.0,800.0,1100.0,,,,,,,,,,,,,88
569,Couzinie_43,10.1002/adma.201701678,HfTaTiZr,BCC,S,AC,,10.2,,T,25.0,1500.0,1500.0,,,112.0,,,,,,,,,,88
570,Couzinie_45,10.1016/j.msea.2017.12.004,MoNbTaTi0.25W,BCC,S,AC,,13.0,478.3,C,25.0,1109.0,1197.0,,,249.4,,,,,,,,,,89
571,Couzinie_45,10.1016/j.msea.2017.12.004,MoNbTaTi0.5W,BCC,S,AC,,12.6,481.2,C,25.0,1211.0,1578.0,,,242.0,,,,,,,,,,89
572,Couzinie_45,10.1016/j.msea.2017.12.004,MoNbTaTi0.75W,BCC,S,AC,,12.1,495.6,C,25.0,1304.0,1593.0,,,235.4,,,,,,,,,,89
573,Couzinie_45,10.1016/j.msea.2017.12.004,MoNbTaTiW,BCC,S,AC,,11.7,507.5,C,25.0,1455.0,1910.0,,,229.4,,,,,,,,,,89
574,Couzinie_45,10.1016/j.msea.2017.12.004,MoNbTaW,BCC,S,AC,,13.6,,C,25.0,996.0,1148.0,,,257.8,,,,,,,,,,89
575,Couzinie_46,10.1016/j.jallcom.2016.11.188,MoNbTaTiV,BCC,S,AC,,9.3,,C,25.0,1400.0,2450.0,,,172.8,,,,,,,,,,90
576,Couzinie_47,10.1016/j.intermet.2017.01.007,MoNbTaTiVW,BCC,S,AC,,10.9,,C,600.0,973.0,1590.0,,,212.5,,,,,,,,,,91
577,Couzinie_47,10.1016/j.intermet.2017.01.007,MoNbTaTiVW,BCC,S,AC,,10.9,,C,800.0,791.3,1180.0,,,,,,,,,,,,,91
578,Couzinie_47,10.1016/j.intermet.2017.01.007,MoNbTaTiVW,BCC,S,AC,,10.9,,C,1000.0,752.8,1105.0,,,,,,,,,,,,,91
579,Couzinie_47,10.1016/j.intermet.2017.01.007,MoNbTaTiVW,BCC,S,AC,,10.9,,C,1200.0,659.0,696.0,,,,,,,,,,,,,91
580,Couzinie_47,10.1016/j.intermet.2017.01.007,MoNbTaTiVW,BCC,S,AC,,10.9,,C,25.0,1515.0,2135.0,,,,,,,,,,,,,91
581,Couzinie_47,10.1016/j.intermet.2017.01.007,MoNbTaTiW,BCC,S,AC,,11.7,,C,600.0,689.0,1681.0,,,229.4,,,,,,,,,,91
582,Couzinie_47,10.1016/j.intermet.2017.01.007,MoNbTaTiW,BCC,S,AC,,11.7,,C,800.0,674.0,1618.0,,,,,,,,,,,,,91
583,Couzinie_47,10.1016/j.intermet.2017.01.007,MoNbTaTiW,BCC,S,AC,,11.7,,C,1000.0,620.0,1426.0,,,,,,,,,,,,,91
584,Couzinie_47,10.1016/j.intermet.2017.01.007,MoNbTaTiW,BCC,S,AC,,11.7,,C,1200.0,586.0,814.0,,,,,,,,,,,,,91
585,Couzinie_47,10.1016/j.intermet.2017.01.007,MoNbTaTiW,BCC,S,AC,,11.7,,C,25.0,1343.0,2005.0,,,,,,,,,,,,,91
586,Couzinie_48,10.1016/j.msec.2016.12.057,MoNbTaTiZr,BCC+BCC,M,AC,,9.1,,C,25.0,1390.0,,,,,,,,,,,,,,92
587,Couzinie_49,10.1016/j.scriptamat.2016.10.028,MoNbTaTiZr,BCC+BCC,M,A,,9.1,,C,25.0,1100.0,1200.0,,,,,,,,,,,,,93
588,Couzinie_49,10.1016/j.scriptamat.2016.10.028,MoNbTaTiZr,BCC+BCC,M,AC,,9.1,,C,25.0,1375.0,1450.0,,,,,,,,,,,,,93
589,Couzinie_51,10.1016/j.msea.2017.12.021,MoNbTaVW,BCC,S,SPS,,12.3,,C,25.0,2612.0,3472.0,,,231.8,,,,,,,,,,94
590,Couzinie_54,10.1016/j.msea.2016.07.102,NbTaTiV,BCC,S,AC,,9.1,,C,25.0,965.0,,,,133.8,,,,,,,,,,95
591,Couzinie_54,10.1016/j.msea.2016.07.102,NbTaTiVW,BCC,S,AC,,11.0,,C,25.0,1420.0,1800.0,20,,189.2,,,,,,,,,,95
592,Couzinie_54,10.1016/j.msea.2016.07.102,NbTaVW,BCC,S,AC,,12.8,,C,25.0,1530.0,1700.0,12,,207.5,,,,,,,,,,95
593,Couzinie_8,10.1016/j.matlet.2016.11.030,Al0.5CrNbTi2V0.5,BCC+Laves,M,A,,5.8,,C,600.0,930.0,,,,,,,,,,,,,,96
594,Couzinie_8,10.1016/j.matlet.2016.11.030,Al0.5CrNbTi2V0.5,BCC+Laves,M,A,,5.8,,C,800.0,445.0,,,,143.0,,,,,,,,,,96
595,Couzinie_8,10.1016/j.matlet.2016.11.030,Al0.5CrNbTi2V0.5,BCC+Laves,M,A,,5.8,,C,1000.0,90.0,,,,,,,,,,,,,,96
596,Couzinie_8,10.1016/j.matlet.2016.11.030,Al0.5CrNbTi2V0.5,BCC+Laves,M,A,,5.8,,C,25.0,1340.0,1700.0,,,,,,,,,,,,,96
597,Couzinie_8,10.1016/j.matlet.2016.11.030,Al0.5CrNbTi2V0.5,BCC,S,AC,,5.8,,C,25.0,1240.0,,,,,,,,,,,,,,96
598,Couzinie_9,10.1016/j.jallcom.2015.08.224,AlCr0.5NbTiV,BCC,S,A,,5.6,,C,600.0,1005.0,1045.0,,,124.1,,,,,,,,,,97
599,Couzinie_9,10.1016/j.jallcom.2015.08.224,AlCr0.5NbTiV,BCC,S,A,,5.6,,C,800.0,640.0,685.0,,,,,,,,,,,,,97
600,Couzinie_9,10.1016/j.jallcom.2015.08.224,AlCr0.5NbTiV,BCC,S,A,,5.6,,C,1000.0,40.0,80.0,,,,,,,,,,,,,97
601,Couzinie_9,10.1016/j.jallcom.2015.08.224,AlCr0.5NbTiV,BCC,S,A,,5.6,,C,25.0,1300.0,1430.0,,,,,,,,,,,,,97
602,Couzinie_9,10.1016/j.jallcom.2015.08.224,AlCr1.5NbTiV,BCC+Laves,M,A,,5.8,,C,600.0,1370.0,1480.0,,,,,,,,,,,,,97
603,Couzinie_9,10.1016/j.jallcom.2015.08.224,AlCr1.5NbTiV,BCC+Laves,M,A,,5.8,,C,800.0,970.0,1045.0,,,,,,,,,,,,,97
604,Couzinie_9,10.1016/j.jallcom.2015.08.224,AlCr1.5NbTiV,BCC+Laves,M,A,,5.8,,C,1000.0,75.0,105.0,,,,,,,,,,,,,97
605,Couzinie_9,10.1016/j.jallcom.2015.08.224,AlCr1.5NbTiV,BCC+Laves,M,A,,5.8,,C,25.0,1700.0,1700.0,,,,,,,,,,,,,97
606,Couzinie_9,10.1016/j.jallcom.2015.08.224,AlCrNbTiV,BCC+Laves,M,A,,5.7,,C,600.0,1015.0,1060.0,,,,,,,,,,,,,97
607,Couzinie_9,10.1016/j.jallcom.2015.08.224,AlCrNbTiV,BCC+Laves,M,A,,5.7,,C,800.0,860.0,895.0,,,,,,,,,,,,,97
608,Couzinie_9,10.1016/j.jallcom.2015.08.224,AlCrNbTiV,BCC+Laves,M,A,,5.7,,C,1000.0,65.0,95.0,,,,,,,,,,,,,97
609,Couzinie_9,10.1016/j.jallcom.2015.08.224,AlCrNbTiV,BCC+Laves,M,A,,5.7,,C,25.0,1550.0,1570.0,,,,,,,,,,,,,97
610,Couzinie_9,10.1016/j.jallcom.2015.08.224,AlNbTiV,BCC,S,A,,5.5,,C,600.0,780.0,1005.0,,,104.8,,,,,,,,,,97
611,Couzinie_9,10.1016/j.jallcom.2015.08.224,AlNbTiV,BCC,S,A,,5.5,,C,800.0,560.0,700.0,,,,,,,,,,,,,97
612,Couzinie_9,10.1016/j.jallcom.2015.08.224,AlNbTiV,BCC,S,A,,5.5,,C,1000.0,110.0,,,,,,,,,,,,,,97
613,Couzinie_9,10.1016/j.jallcom.2015.08.224,AlNbTiV,BCC,S,A,,5.5,,C,25.0,1000.0,1280.0,,,,,,,,,,,,,97
0,J2,10.1016/j.scriptamat.2018.08.048,Al0.3CoCrFeNi,FCC + B2 + Sigma,M,CR + A,0.71 $\pm$ 0.35,,,T,25.0,900,1074,25,,,,,,,,,,,,140
1,J3,10.1016/j.jallcom.2018.08.093,Fe40Mn25Cr20Ni15,FCC + BCC,M,AC,75,,,C,25.0,219,,,,,,,,,,,,,,151
2,J3,10.1016/j.jallcom.2018.08.093,Fe40Mn25Cr20Ni15Al2,FCC + BCC,M,AC,,,,C,25.0,354,,,,,,,,,,,,,,151
3,J3,10.1016/j.jallcom.2018.08.093,Fe40Mn25Cr20Ni15Al6,FCC + BCC,M,AC,,,,C,25.0,550,,,,,,,,,,,,,,151
4,J3,10.1016/j.jallcom.2018.08.093,Fe40Mn25Cr20Ni15Al10,B2 + BCC,M,AC,175,,,C,25.0,994,,,,,,,,,,,,,,151
5,J3,10.1016/j.jallcom.2018.08.093,Fe40Mn25Cr20Ni15Al14,B2 + BCC,M,AC,175,,,C,25.0,942,,,,,,,,,,,,,,151
6,J3,10.1016/j.jallcom.2018.08.093,Fe40Mn25Cr20Ni15,FCC + BCC,M,AC,,,,C,400.0,132,,,,,,,,,,,,,,151
7,J3,10.1016/j.jallcom.2018.08.093,Fe40Mn25Cr20Ni15Al2,FCC + BCC,M,AC,,,,C,400.0,260,,,,,,,,,,,,,,151
8,J3,10.1016/j.jallcom.2018.08.093,Fe40Mn25Cr20Ni15Al6,FCC + BCC,M,AC,,,,C,400.0,469,,,,,,,,,,,,,,151
9,J3,10.1016/j.jallcom.2018.08.093,Fe40Mn25Cr20Ni15Al10,B2 + BCC,M,AC,,,,C,400.0,943,,,,,,,,,,,,,,151
10,J3,10.1016/j.jallcom.2018.08.093,Fe40Mn25Cr20Ni15Al14,B2 + BCC,M,AC,,,,C,400.0,833,,,,,,,,,,,,,,151
11,J3,10.1016/j.jallcom.2018.08.093,Fe40Mn25Cr20Ni15,FCC + BCC,M,AC,,,,C,600.0,115,,,,,,,,,,,,,,151
12,J3,10.1016/j.jallcom.2018.08.093,Fe40Mn25Cr20Ni15Al2,FCC + BCC,M,AC,,,,C,600.0,155,,,,,,,,,,,,,,151
13,J3,10.1016/j.jallcom.2018.08.093,Fe40Mn25Cr20Ni15Al6,FCC + BCC,M,AC,,,,C,600.0,272,,,,,,,,,,,,,,151
14,J3,10.1016/j.jallcom.2018.08.093,Fe40Mn25Cr20Ni15Al10,B2 + BCC,M,AC,,,,C,600.0,359,,,,,,,,,,,,,,151
15,J3,10.1016/j.jallcom.2018.08.093,Fe40Mn25Cr20Ni15Al14,B2 + BCC,M,AC,,,,C,600.0,326,,,,,,,,,,,,,,151
16,J4-8,10.1016/j.actamat.2013.06.018,CoCrFeMnNi,FCC,S,CR + A,4.4,,,T,25.0,370,670,56,,,,,,,switched to engineering stress strain ,8.0,10.1016/j.actamat.2013.06.018,,https://doi.org/10.1016/j.actamat.2013.06.018,198
17,J4-18,10.1016/j.actamat.2017.03.069,Co10Cr10Fe50Mn30,FCC + HCP,M,A,45,,,T,25.0,250,730,50,,,,,,,switched to engineering stress strain ,18.0,10.1016/j.actamat.2017.03.069,,,174
18,J4-18,10.1016/j.actamat.2017.03.069,Co10Cr10Fe50Mn30,FCC + HCP,M,CR + A,4.5,,,T,25.0,330,870,75,,,,,,,switched to engineering stress strain ,18.0,10.1016/j.actamat.2017.03.069,,,174
19,J4-18,10.1016/j.actamat.2017.03.069,Co10Cr10Fe50Mn30,FCC + HCP,M,CR + A,6,,,T,25.0,280,800,65,,,,,,,switched to engineering stress strain ,18.0,10.1016/j.actamat.2017.03.069,,,174
20,J4-18,10.1016/j.actamat.2017.03.069,Co10Cr10Fe50Mn30,FCC + HCP,M,CR + A,15,,,T,25.0,350,830,63,,,,,,,switched to engineering stress strain ,18.0,10.1016/j.actamat.2017.03.069,,,174
21,J4-34,10.1038/s41598-017-16509-9,Co10Cr10Fe50Mn30,FCC + HCP,M,HR + A,6.5,,,T,25.0,298,1400,45,,,,,,,removed true stress strain values,34.0,10.1038/s41598-017-16509-9,,,176
22,J4-34,10.1038/s41598-017-16509-9,Co10Cr10Fe50Mn30,FCC + HCP,M,HR + A,5.2,,,T,25.0,400,1200,42,,,,,,,removed true stress strain values,34.0,10.1038/s41598-017-16509-9,,,176
23,J4-60,10.1016/j.matlet.2017.04.072,Al7Co23Cr23Fe23Ni23,FCC + B2,M,,0.7,,,T,25.0,860,1050,48,,,,,,,"Data extracted from Table 6, does not belong in below data",60.0,10.1016/j.matlet.2017.04.072,,,183
24,J4-60,10.1016/j.matlet.2017.04.072,Al7Co23Cr23Fe23Ni23,FCC + B2,M,,2.7,,,T,25.0,690,930,51,,,,,,,,60.0,10.1016/j.matlet.2017.04.072,,,183
25,J4-60,10.1016/j.matlet.2017.04.072,Al7Co23Cr23Fe23Ni23,FCC + B2,M,,3.8,,,T,25.0,550,800,64,,,,,,,,60.0,10.1016/j.matlet.2017.04.072,,,183
26,J4-60,10.1016/j.matlet.2017.04.072,Al7Co23Cr23Fe23Ni23,FCC,S,,53,,,T,25.0,260,620,87,,,,,,,,60.0,10.1016/j.matlet.2017.04.072,,,183
27,J4-60,10.1016/j.matlet.2017.04.072,Al7Co23Cr23Fe23Ni23,FCC + BCC,M,CR + A,,,,,,,,,,,,,,,,60.0,10.1016/j.matlet.2017.04.072,,,183
28,J4-40,10.1016/j.scriptamat.2016.06.019,Al7Co23Cr23Fe23Ni23,FCC,S,CR + A,,,,,,,,,,,,,,,,40.0,10.1016/j.scriptamat.2016.06.019,,,179
29,J4-40,10.1016/j.scriptamat.2016.06.019,Al7Co23Cr23Fe23Ni23,FCC + L12,M,CR + A,,,,,,,,,,,,,,,,40.0,10.1016/j.scriptamat.2016.06.019,,,179
30,J4-40,10.1016/j.scriptamat.2016.06.019,Al7Co23Cr23Fe23Ni23,FCC + L12,M,CR + A,,,,,,,,,,,,,,,,40.0,10.1016/j.scriptamat.2016.06.019,,,179
31,J4-39,10.1016/j.matdes.2017.02.072,Al7Co23Cr23Fe23Ni23,FCC,S,CR + A,144,,,T,25.0,159,410,65,,,,,,,,39.0,10.1016/j.matdes.2017.02.072,,,178
32,J4-39,10.1016/j.matdes.2017.02.072,Al7Co23Cr23Fe23Ni23,FCC + B2,M,CR + A,144,,,T,25.0,215,520,43,,,,,,,,39.0,10.1016/j.matdes.2017.02.072,,,178
33,J4-39,10.1016/j.matdes.2017.02.072,Al7Co23Cr23Fe23Ni23,FCC + L12,M,CR + A,144,,,T,25.0,285,540,55,,,,,,,,39.0,10.1016/j.matdes.2017.02.072,,,178
34,J4-39,10.1016/j.matdes.2017.02.072,Al7Co23Cr23Fe23Ni23,FCC,S,CR + A,23,,,T,25.0,263,589,60,,,,,,,,39.0,10.1016/j.matdes.2017.02.072,,,178
35,J4-39,10.1016/j.matdes.2017.02.072,Al7Co23Cr23Fe23Ni23,FCC + L12 + B2,M,CR + A,23,,,T,25.0,490,840,45,,,,,,,,39.0,10.1016/j.matdes.2017.02.072,,,178
36,J4-61,10.1016/j.actamat.2017.03.066,Al7Co23Cr23Fe23Ni23,FCC + BCC,M,A,,,,,,,,,,,,,,,,61.0,10.1016/j.actamat.2017.03.066,,,184
37,J4-62,10.1016/j.jallcom.2008.12.088,Al7Co23Cr23Fe23Ni23,FCC + L12,M,AC,,,,T,25.0,175,335,58,,,,,,,Added and replaced data sets,62.0,10.1016/j.jallcom.2008.12.088,,,185
38,J4-62,10.1016/j.jallcom.2008.12.088,Al7Co23Cr23Fe23Ni23,FCC + L12,M,A,,,,T,25.0,305,525,44,,,,,,,,62.0,10.1016/j.jallcom.2008.12.088,,,185
39,J4-62,10.1016/j.jallcom.2008.12.088,Al7Co23Cr23Fe23Ni23,FCC + B2,M,A,,,,T,25.0,280,570,44,,,,,,,,62.0,10.1016/j.jallcom.2008.12.088,,,185
40,J4-63,10.1016/j.jallcom.2013.11.084,Al7Co23Cr23Fe23Ni23,FCC,S,Aged,,,,,,,,,,,,,,,,63.0,10.1016/j.jallcom.2013.11.084,,,186
41,J4-63,10.1016/j.jallcom.2013.11.084,Al7Co23Cr23Fe23Ni23,FCC,S,Aged,,,,,,,,,,,,,,,,63.0,10.1016/j.jallcom.2013.11.084,,,186
42,J4-64,10.1016/j.matdes.2016.05.079,Al7Co23Cr23Fe23Ni23,FCC + B2,M,Aged,,,,,,,,,,,,,,,,64.0,10.1016/j.matdes.2016.05.079,,,187
43,J4-72,10.1016/j.msea.2015.08.078,AlCoCrFeNi,BCC + B2,M,AC,,,,T,700.0,395,400,1,,,,,,,I don't like this reference...,72.0,10.1016/j.msea.2015.08.078,,,190
44,J4-70,10.1016/j.jallcom.2016.05.034,AlCoCrFeNi,BCC + B2,M,AC,,,,C,25.0,1380,,10,,,,,,,,70.0,10.1016/j.jallcom.2016.05.034,,,188
45,J4-70,10.1016/j.jallcom.2016.05.034,AlCoCrFeNi,BCC + $\sigma$ + B2 + FCC,M,A,,,,C,25.0,1430,,1.6,,,,,,,,70.0,10.1016/j.jallcom.2016.05.034,,,188
46,J4-70,10.1016/j.jallcom.2016.05.034,AlCoCrFeNi,BCC + B2 + FCC,M,A,,,,C,25.0,1690,,2.7,,,,,,,,70.0,10.1016/j.jallcom.2016.05.034,,,188
47,J4-70,10.1016/j.jallcom.2016.05.034,AlCoCrFeNi,BCC + B2 + FCC,M,A,,,,C,25.0,1220,,13,,,,,,,,70.0,10.1016/j.jallcom.2016.05.034,,,188
48,J4-70,10.1016/j.jallcom.2016.05.034,AlCoCrFeNi,BCC + B2 + FCC,M,A,,,,C,25.0,1450,,20,,,,,,,,70.0,10.1016/j.jallcom.2016.05.034,,,188
49,J4-71,10.1016/j.jallcom.2017.03.307,AlCoCrFeNi,FCC + BCC,M,A,,,,T,25.0,900,935,0.8,,,,,,,I don't like this reference...,71.0,10.1016/j.jallcom.2017.03.307,,,189
50,J4-73,10.1016/j.matlet.2016.01.096,Al17Cr17Fe33Ni33,FCC + BCC + B2,M,AC,,,,T,25.0,796,1437,15.7,,,,,,,,73.0,10.1016/j.matlet.2016.01.096,,,191
51,J4-74,10.1016/j.actamat.2016.11.016,Al17Co17Cr17Fe17Ni33.3,L12 + B2,M,,,,,T,25.0,545,1030,16.5,,,,,,,the reference has more accurate numbers: https://sci-hub.tw/https://doi.org/10.1016/j.actamat.2016.11.016,74.0,10.1016/j.actamat.2016.11.016,,,192
52,J4-74,10.1016/j.actamat.2016.11.016,Al16Co16Cr16Fe16Ni34.4,L12 + B2,M,,,,,T,25.0,545,1050,16.5,,,,,,,the reference has more accurate numbers: https://sci-hub.tw/https://doi.org/10.1016/j.actamat.2016.11.017,74.0,10.1016/j.actamat.2016.11.016,,,192
53,J4-74,10.1016/j.actamat.2016.11.016,Al16Co16Cr16Fe16Ni35.5,L12 + B2,M,,,,,T,25.0,545,1110,20,,,,,,,the reference has more accurate numbers: https://sci-hub.tw/https://doi.org/10.1016/j.actamat.2016.11.018,74.0,10.1016/j.actamat.2016.11.016,,,192
54,J4-74,10.1016/j.actamat.2016.11.016,Al17Co17Cr17Fe17Ni33.3,,,,,,,T,-70.0,580,1034,10.5,,,,,,,the reference has more accurate numbers: https://sci-hub.tw/https://doi.org/10.1016/j.actamat.2016.11.019,74.0,10.1016/j.actamat.2016.11.016,,,192
55,J4-74,10.1016/j.actamat.2016.11.016,Al16Co16Cr16Fe16Ni34.4,,,,,,,T,-70.0,595,1168,15.8,,,,,,,the reference has more accurate numbers: https://sci-hub.tw/https://doi.org/10.1016/j.actamat.2016.11.020,74.0,10.1016/j.actamat.2016.11.016,,,192
56,J4-74,10.1016/j.actamat.2016.11.016,Al16Co16Cr16Fe16Ni35.5,,,,,,,T,-70.0,570,1143,18,,,,,,,the reference has more accurate numbers: https://sci-hub.tw/https://doi.org/10.1016/j.actamat.2016.11.021,74.0,10.1016/j.actamat.2016.11.016,,,192
57,J4-74,10.1016/j.actamat.2016.11.016,Al17Co17Cr17Fe17Ni33.3,,,,,,,T,-192.0,700,1000,4,,,,,,,UTS range (low value recorded),74.0,10.1016/j.actamat.2016.11.016,,,192
58,J4-74,10.1016/j.actamat.2016.11.016,Al16Co16Cr16Fe16Ni34.4,,,,,,,T,-192.0,700,1000,7,,,,,,,UTS range (low value recorded),74.0,10.1016/j.actamat.2016.11.016,,,192
59,J4-74,10.1016/j.actamat.2016.11.016,Al16Co16Cr16Fe16Ni35.5,,,,,,,T,-192.0,700,1000,9,,,,,,,UTS range (low value recorded),74.0,10.1016/j.actamat.2016.11.016,,,192
60,J4-77,10.1016/j.scriptamat.2016.04.014,Al12Co18Cr18Fe35Ni18,BCC + B2,M,AC,,,,T,25.0,866,1223,7.9,,,,,,,,77.0,10.1016/j.scriptamat.2016.04.014,,,195
61,J4-77,10.1016/j.scriptamat.2016.04.014,Al12Co18Cr18Fe35Ni18,,,AC,,,,T,650.0,400,468,6.3,,,,,,,,77.0,10.1016/j.scriptamat.2016.04.014,,,195
62,J4-77,10.1016/j.scriptamat.2016.04.014,Al12Co18Cr18Fe35Ni18,,,AC,,,,T,700.0,220,340,5.4,,,,,,,,77.0,10.1016/j.scriptamat.2016.04.014,,,195
63,J4-77,10.1016/j.scriptamat.2016.04.014,Al12Co18Cr18Fe35Ni18,,,AC,,,,C,25.0,1166,,30.2,,,,,,,,77.0,10.1016/j.scriptamat.2016.04.014,,,195
64,J4-85,10.1016/j.scriptamat.2017.05.019,Co35Cr15Fe20Ni20Mo10,FCC,S,AC,,,,T,25.0,350,720,21.9,,,,,,,wrong processing ,85.0,10.1016/j.scriptamat.2017.05.019,,,199
65,J4-85,10.1016/j.scriptamat.2017.05.019,Co35Cr15Fe20Ni20Mo10,FCC + $\mu$,M,CR + A,,,,T,25.0,1311,1410,12.1,,,,,,,wrong processing ,85.0,10.1016/j.scriptamat.2017.05.019,,,199
66,J4-85,10.1016/j.scriptamat.2017.05.019,Co35Cr15Fe20Ni20Mo10,FCC + $\mu$,M,CR + A,,,,T,25.0,1212,1360,14.9,,,,,,,wrong processing ,85.0,10.1016/j.scriptamat.2017.05.019,,,199
67,J4-85,10.1016/j.scriptamat.2017.05.019,Co35Cr15Fe20Ni20Mo10,FCC + $\mu$,M,CR + A,,,,T,25.0,1028,1249,18.3,,,,,,,wrong processing ,85.0,10.1016/j.scriptamat.2017.05.019,,,199