,REFERENCE: tag,REFERENCE: doi,FORMULA,PROPERTY: Type of phases,PROPERTY: Single/Multiphase,PROPERTY: synthesis method,PROPERTY: grain size ($\mu$m),PROPERTY: ROM Density (g/cm$^3$),PROPERTY: HV,PROPERTY: Type of test,PROPERTY: Test temperature ($^\circ$C),PROPERTY: YS (MPa),PROPERTY: UTS (MPa),PROPERTY: Elongation (%),PROPERTY: Elongation plastic (%),PROPERTY: Young modulus (GPa),PROPERTY: O content (wppm),PROPERTY: N content (wppm),PROPERTY: C content (wppm),REFERENCE: comment,"Internal Reference # (J4, J90)","J4, J90 Original DOI",PROPERTY: Exp. Density (g/cm$^3$),Unnamed: 22,IDENTIFIER: Reference ID
988,J135,10.1080/02670836.2018.1446267,AlNbTiZr,,,,,,539.6,C,25.0,1080,,5.9,,,,,,,19,,5.79,,133
989,J135,10.1080/02670836.2018.1446267,HfNbTiZr,,,,,,,C,25.0,879,,16.5,,,,,,,20,,,,133
990,J135,10.1080/02670836.2018.1446267,AlNb1.5Ta0.5Ti1.5Zr0.5,,,,,,407.9,C,25.0,1280,,4.8,,,,,,,26,,6.8,,133
991,J135,10.1080/02670836.2018.1446267,NbTiVZr,,,,,,335,C,25.0,1105,,>50,,,,,,,24-25,,6.52,,133
992,J135,10.1080/02670836.2018.1446267,CrNbTiZr,,,,,,418,C,25.0,1260,,6,,,,,,,24-25,,6.67,,133