,REFERENCE: tag,REFERENCE: doi,FORMULA,PROPERTY: Type of phases,PROPERTY: Single/Multiphase,PROPERTY: synthesis method,PROPERTY: grain size ($\mu$m),PROPERTY: ROM Density (g/cm$^3$),PROPERTY: HV,PROPERTY: Type of test,PROPERTY: Test temperature ($^\circ$C),PROPERTY: YS (MPa),PROPERTY: UTS (MPa),PROPERTY: Elongation (%),PROPERTY: Elongation plastic (%),PROPERTY: ROM Young modulus (GPa),PROPERTY: Exp. Young modulus (GPa),PROPERTY: O content (wppm),PROPERTY: N content (wppm),PROPERTY: C content (wppm),REFERENCE: comment,Internal Reference #,Original DOI,PROPERTY: Exp. Density (g/cm$^3$),Unnamed: 22,IDENTIFIER: Reference ID
863,J121,10.1007/s11665-018-3837-1,(CoCrCuFeNi)84V16,FCC + Sigma + Cu phase,M,AC,,,,C,25.0,616,,28,,,,,,,changed to multiphase,,,,,119
864,J122,10.3390/e21020122,CoCrNiCuZn,FCC,S,SPS,500,,,C,25.0,,,,,,,,,,,,,5.26,,120
865,J122,10.3390/e21020122,CoCrNiCuZn,FCC,S,SPS,500,,,C,25.0,,,,,,,,,,,,,6.26,,120
866,J122,10.3390/e21020122,CoCrNiCuZn,FCC,S,SPS,500,,,C,25.0,,,,,,,,,,,,,7.84,,120
867,J122,10.3390/e21020122,CoCrNiCuZn,FCC,S,SPS,500,,615,C,25.0,,,,,,,,,,,,,7.89,,120
868,J123,10.3390/e21020114,HfNbTaTiZr,BCC,S,AC,500,,359,T,25.0,1155,1212,12.3,,,59,,,,,,,,,121
869,J123,10.3390/e21020114,NbTaTiZr,BCC,S,AC,500,,358,T,25.0,1144,1205,6.4,,,98,,,,,,,,,121
870,J123,10.3390/e21020114,NbTaTi,BCC,S,AC,500,,246,T,25.0,620,683,18.5,,,143,,,,,,,,,121
871,J123,10.3390/e21020114,TaTiZr,BCC + ,M,AC,500,,485,T,25.0,,284,0,,,157,,,,changed to multiphase,,,,,121
872,J123,10.3390/e21020114,NbTiZr,BCC,S,AC,500,,295,T,25.0,956,991,14.2,,,88,,,,,,,,,121
873,J123,10.3390/e21020114,Nb1.5TaTiZr0.5,BCC + ,M,AC,500,,294,T,25.0,822,852,0.33,,,127,,,,changed to multiphase,,,,,121
874,J123,10.3390/e21020114,Nb0.5TaTiZr1.5,BCC + ,M,AC,500,,489,T,25.0,,843,0,,,93,,,,changed to multiphase,,,,,121
875,J124,10.1016/j.msea.2018.12.020,AgAlNbTiZn,,M,A,,,,,,,,,,,,,,,changed to multiphase,,,4.75,,122
876,J124,10.1016/j.msea.2018.12.020,AgAlNbTiZn,,M,A,,,,,,,,,,,,,,,changed to multiphase,,,5.78,,122
877,J124,10.1016/j.msea.2018.12.020,AgAlNbTiZn,,M,A,,,,,,,,,,,,,,,changed to multiphase,,,5.79,,122
878,J124,10.1016/j.msea.2018.12.020,AgAlNbTiZn,,M,A,,,,,,,,,,,,,,,changed to multiphase,,,5.51,,122
879,J124,10.1016/j.msea.2018.12.020,AgAlNbTiZn,,M,A,,,,,,,,,,,,,,,changed to multiphase,,,,,122
880,J125,10.1155/2019/2157592,Fe31Mn28 Ni15Al24,,,AC,,,310,,,,,,,,,,,,,,,,,123
881,J125,10.1155/2019/2157592,Fe31Mn28 Ni15Al24Ti0.8,,,AC,,,330,,,,,,,,,,,,,,,,,123
882,J125,10.1155/2019/2157592,Fe31Mn28 Ni15Al24Ti3,,,AC,,,500,,,,,,,,,,,,,,,,,123
883,J125,10.1155/2019/2157592,Fe31Mn28 Ni15Al24,,,A,,,340,,,,,,,,,,,,,,,,,123
884,J125,10.1155/2019/2157592,Fe31Mn28 Ni15Al24Ti0.8,,,A,,,410,,,,,,,,,,,,,,,,,123
885,J125,10.1155/2019/2157592,Fe31Mn28 Ni15Al24Ti3,,,A,,,495,,,,,,,,,,,,,,,,,123
886,J125,10.1155/2019/2157592,Fe31Mn28 Ni15Al24,,,A,,,330,,,,,,,,,,,,,,,,,123
887,J125,10.1155/2019/2157592,Fe31Mn28 Ni15Al24Ti0.8,,,A,,,330,,,,,,,,,,,,,,,,,123
888,J125,10.1155/2019/2157592,Fe31Mn28 Ni15Al24Ti3,,,A,,,490,,,,,,,,,,,,,,,,,123
889,J126,10.1080/00325899.2019.1576389,AlCrFeNiCoC,FCC + BCC,M,SPS,,,,,,,,,,,,,,,,,,,,124
890,J128,10.1007/s11106-019-00012-z,CrFeNiCuTi,FCC + BCC,M,AC,,,,,,,,,,,,,,,No Mechanical Data,,,,,125
891,J128,10.1007/s11106-019-00012-z,CrFeNiCuTi,FCC + BCC,M,HF + A,,,,,,,,,,,,,,,,,,,,125
892,J128,10.1007/s11106-019-00012-z,CrFeNiCuTi,FCC + BCC,M,HF + A,,,,,,,,,,,,,,,,,,,,125
893,J128,10.1007/s11106-019-00012-z,CrFeNiCuTi,FCC + BCC,M,HF + A,,,,,,,,,,,,,,,,,,,,125
894,J129,10.1080/00325899.2018.1554834,CrMnFeCoNi,FCC  ,S,SPS,0.03,,435 $\pm$ 25,C,25.0,1100,,47,,,,,,,,,,7.753,,126
895,J130,10.1007/s11665-018-3822-8,CuCrFeNiAl0.5,FCC,S,AC,,,226,,,,,,,,,,,,,,,,,128
896,J130,10.1007/s11665-018-3822-8,CuCrFeNiAl0.5,FCC,S,CR + A,,,287,,,,,,,,,,,,,,,,,128
897,J131,10.3390/e21010015,HfMoNbTaTiZr,BCC,S,AC,,,,C,25.0,1512,,12,,,,,,,,,,,,129
898,J131,10.3390/e21010015,HfMoTaTiZr,BCC,S,AC,,,,C,25.0,1600,,4,,,,,,,,,,,,129
899,J131,10.3390/e21010015,HfMoNbTiZr,BCC,S,AC,,,,C,25.0,1351,,20,,,,,,,,,,,,129
900,J131,10.3390/e21010015,HfMoNbTaZr,BCC,S,AC,,,,C,25.0,1524,,16,,,,,,,,,,,,129
901,J131,10.3390/e21010015,HfMoNbTaTi ,BCC,S,AC,,,,C,25.0,1369,,27,,,,,,,,,,,,129
902,J131,10.3390/e21010015,HfMoNbTaTiZr,BCC,S,AC,,,,C,800.0,1007,,,,,,,,,,,,,,129
903,J131,10.3390/e21010015,HfMoTaTiZr,BCC,S,AC,,,,C,800.0,1045,,,,,,,,,,,,,,129
904,J131,10.3390/e21010015,HfMoNbTiZr,BCC,S,AC,,,,C,800.0,829,,,,,,,,,,,,,,129
905,J131,10.3390/e21010015,HfMoNbTaZr,BCC,S,AC,,,,C,800.0,1005,,,,,,,,,,,,,,129
906,J131,10.3390/e21010015,HfMoNbTaTi ,BCC,S,AC,,,,C,800.0,822,,,,,,,,,,,,,,129
907,J131,10.3390/e21010015,HfMoNbTaTiZr,BCC,S,AC,,,,C,1000.0,814,,,,,,,,,,,,,,129
908,J131,10.3390/e21010015,HfMoTaTiZr,BCC,S,AC,,,,C,1000.0,855,,,,,,,,,,,,,,129
909,J131,10.3390/e21010015,HfMoNbTiZr,BCC,S,AC,,,,C,1000.0,721,,,,,,,,,,,,,,129
910,J131,10.3390/e21010015,HfMoNbTaZr,BCC,S,AC,,,,C,1000.0,927,,,,,,,,,,,,,,129
911,J131,10.3390/e21010015,HfMoNbTaTi ,BCC,S,AC,,,,C,1000.0,778,,,,,,,,,,,,,,129
912,J131,10.3390/e21010015,HfMoNbTaTiZr,BCC,S,AC,,,,C,1200.0,556,,,,,,,,,,,,,,129
913,J131,10.3390/e21010015,HfMoTaTiZr,BCC,S,AC,,,,C,1200.0,404,,,,,,,,,,,,,,129
914,J131,10.3390/e21010015,HfMoNbTiZr,BCC,S,AC,,,,C,1200.0,301,,,,,,,,,,,,,,129
915,J131,10.3390/e21010015,HfMoNbTaZr,BCC,S,AC,,,,C,1200.0,694,,,,,,,,,,,,,,129
916,J131,10.3390/e21010015,HfMoNbTaTi ,BCC,S,AC,,,,C,1200.0,699,,,,,,,,,,,,,,129
917,J131,10.3390/e21010015,HfMoNbTaZr,BCC,S,AC,,,,C,1400.0,278,,,,,,,,,,,,,,129
918,J131,10.3390/e21010015,HfMoNbTaTi ,BCC,S,AC,,,,C,1400.0,367,,,,,,,,,,,,,,129
919,J132,10.3390/coatings9010016,CoCrFeNi,FCC,S,VHP,0.0276,,,,,,,,,,,,,,,,,,,130
920,J132,10.3390/coatings9010016,(CoCrFeNi)0.9(WC)0.1,FCC,S,VHP,0.0189,,475,,,,,,,,,,,,,,,7.24 $\pm$ 0.02,,130
921,J132,10.3390/coatings9010016,(CoCrFeNi)0.7(WC)0.3,FCC,S,VHP,0.0182,,531,,,,,,,,,,,,,,,8.39 $\pm$ 0.03,,130
922,J133,10.5755/j01.ms.25.3.19452,Al0.4FeCrCo1.5NiTi0.3,FCC + BCC,M,SPS,,,515 $\pm$ 16,C,25.0,2012 $\pm$ 20,,,17.52 $\pm$ 0.5,,,,,,,,,,,131
923,J134,10.1007/s11661-018-4646-8,HfNbTaTiZr,BCC,S,AC,,,,T,25.0,1438,1218,5,,,91.5,,,,Hot Isostatically Pressed,,,,,132
924,J134,10.1007/s11661-018-4646-8,HfNbTaTiZr,BCC,S,HIP + CR + A,,,,T,25.0,1159,1127,4.7,,,99.2,,,,these are true strains but it's close enough ,,,,,132
925,J134,10.1007/s11661-018-4646-8,HfNbTaTiZr,BCC,S,HIP + CR + A,,,,T,25.0,1134,1134,7.6,,,109.1,,,,,,,,,132
926,J134,10.1007/s11661-018-4646-8,HfNbTaTiZr,BCC,S,HIP + CR + A,,,,T,25.0,1094,1066,6,,,105.3,,,,,,,,,132
927,J134,10.1007/s11661-018-4646-8,HfNbTaTiZr,BCC,S,HIP + CR + A,,,,T,25.0,1071,964,4.6,,,91.6,,,,,,,,,132
928,J134,10.1007/s11661-018-4646-8,HfNbTaTiZr,BCC,S,HIP + CR + A,24.4,,,T,25.0,1107,977,13.9,,,92.6,,,,,,,,,132
929,J134,10.1007/s11661-018-4646-8,HfNbTaTiZr,BCC,S,HIP + CR + A,31.3,,,T,25.0,1115,830,18.5,,,92.6,,,,,,,,,132
930,J134,10.1007/s11661-018-4646-8,HfNbTaTiZr,BCC,S,HIP + CR + A,38.4,,,T,25.0,1114,935,12.2,,,101.3,,,,,,,,,132
931,J134,10.1007/s11661-018-4646-8,HfNbTaTiZr,BCC,S,HIP + CR + A,50.1,,,,,,,,,,,,,,,,,,,132
932,J134,10.1007/s11661-018-4646-8,HfNbTaTiZr,BCC,S,HIP + CR + A,21.9,,,,,,,,,,,,,,,,,,,132
933,J134,10.1007/s11661-018-4646-8,HfNbTaTiZr,BCC,S,HIP + CR + A,75.5,,,,,,,,,,,,,,,,,,,132
934,J135,10.1080/02670836.2018.1446267,AlNbTiZr,B2,S,AC,250,,422 $\pm$ 15,C,25.0,1509,,8.6,,,,,,,,,,5.85,,133
935,J135,10.1080/02670836.2018.1446267,AlNbTiZr,B2 + Zr5Al3,M,A,,,418 $\pm$ 15,C,25.0,1579,,17.8,,,,,,,,,,,,133
936,J135-18,10.1016/j.matlet.2015.08.099,AlNbTiVZr0.5,,,,,,,C,25.0,1480,,>50,,,,,,,,,,5.64,,134
937,J135-19,10.1179/1743284715Y.0000000032,AlNbTiZr,,,,,,539.6,C,25.0,1080,,5.9,,,,,,,,,,5.79,,135
938,J135-24,10.1016/j.actamat.2012.11.032,NbTiVZr,,,,,,335,C,25.0,1105,,>50,,,,,,,,,,6.52,,136
939,J135-24,10.1016/j.actamat.2012.11.032,CrNbTiZr,,,,,,418,C,25.0,1260,,6,,,,,,,,,,6.67,,136