,REFERENCE: tag,REFERENCE: doi,FORMULA,PROPERTY: Type of phases,PROPERTY: Single/Multiphase,PROPERTY: synthesis method,PROPERTY: grain size ($\mu$m),PROPERTY: ROM Density (g/cm$^3$),PROPERTY: HV,PROPERTY: Type of test,PROPERTY: Test temperature ($^\circ$C),PROPERTY: YS (MPa),PROPERTY: UTS (MPa),PROPERTY: Elongation (%),PROPERTY: Elongation plastic (%),PROPERTY: ROM Young modulus (GPa),PROPERTY: Exp. Young modulus (GPa),PROPERTY: O content (wppm),PROPERTY: N content (wppm),PROPERTY: C content (wppm),REFERENCE: comment,Internal Reference #,Original DOI,PROPERTY: Exp. Density (g/cm$^3$),Unnamed: 22,IDENTIFIER: Reference ID
395,79,10.1016/j.jallcom.2015.07.285,(CuMnNi)80Zn20,FCC,S,AC,,8.3,109.0,C,25.0,140.0,,>65,,171.0,,,,,,,,,,63
396,79,10.1016/j.jallcom.2015.07.285,(CuMnNi)90Al10,FCC+Im,M,AC,,8.1,241.0,C,25.0,515.0,,40,,,,,,,,,,,,63
397,79,10.1016/j.jallcom.2015.07.285,(CuMnNi)90Sn10,FCC+heusler,M,AC,,8.3,318.0,C,25.0,630.0,,20,,,,,,,,,,,,63
398,79,10.1016/j.jallcom.2015.07.285,(CuMnNi)95Al5,FCC,S,AC,,8.3,166.0,C,25.0,330.0,,>45,,174.0,,,,,,,,,,63
399,79,10.1016/j.jallcom.2015.07.285,(CuMnNi)95Sn5,FCC+heusler,M,AC,,8.4,205.0,C,25.0,380.0,,>63,,,,,,,,,,,,63
400,80,10.1007/s11661-005-0218-9,Al0.5CoCrCuFeNi,FCC,S,AC,,7.9,,C,1000.0,150.0,,,,,,,,,,,,,,65
401,80,10.1007/s11661-005-0218-9,Al0.5CoCrCuFeNi,FCC,S,AC,,7.9,,C,25.0,388.0,,,,,,,,,,,,,,65
402,80,10.1007/s11661-005-0218-9,Al0.5CoCrCuFeNi,FCC,S,AC,,7.9,,C,300.0,411.0,,,,,,,,,,,,,,65
403,80,10.1007/s11661-005-0218-9,Al0.5CoCrCuFeNi,FCC,S,AC,,7.9,,C,500.0,421.0,,,,,,,,,,,,,,65
404,80,10.1007/s11661-005-0218-9,Al0.5CoCrCuFeNi,FCC,S,AC,,7.9,,C,700.0,426.0,,,,,,,,,,,,,,65
405,80,10.1007/s11661-005-0218-9,Al0.5CoCrCuFeNi,FCC,S,AC,,7.9,,C,900.0,230.0,,,,,,,,,,,,,,65
406,80,10.1007/s11661-005-0218-9,Al0.5CoCrCuFeNi,FCC,S,AC,,7.9,,C,1100.0,80.0,,,,,,,,,,,,,,65
407,80,10.1007/s11661-005-0218-9,Al2CoCrCuFeNi,BCC,S,AC,,6.7,,C,1000.0,116.0,,,,,,,,,,,,,,65
408,80,10.1007/s11661-005-0218-9,Al2CoCrCuFeNi,BCC,S,AC,,6.7,,C,1100.0,79.0,,,,,,,,,,,,,,65
409,80,10.1007/s11661-005-0218-9,Al2CoCrCuFeNi,BCC,S,AC,,6.7,,C,25.0,1620.0,,,,,,,,,,,,,,65
410,80,10.1007/s11661-005-0218-9,Al2CoCrCuFeNi,BCC,S,AC,,6.7,,C,600.0,805.0,,,,,,,,,,,,,,65
411,80,10.1007/s11661-005-0218-9,Al2CoCrCuFeNi,BCC,S,AC,,6.7,,C,500.0,1120.0,,,,,,,,,,,,,,65
412,80,10.1007/s11661-005-0218-9,Al2CoCrCuFeNi,BCC,S,AC,,6.7,,C,700.0,567.0,,,,,,,,,,,,,,65
413,80,10.1007/s11661-005-0218-9,Al2CoCrCuFeNi,BCC,S,AC,,6.7,,C,900.0,214.0,,,,,,,,,,,,,,65
414,80,10.1007/s11661-005-0218-9,Al2CoCrCuFeNi,BCC,S,AC,,6.7,,C,800.0,302.0,,,,,,,,,,,,,,65
415,80,10.1007/s11661-005-0218-9,AlCoCrCuFeNi,FCC+BCC,M,AC,,7.4,,C,1000.0,47.0,,,,,,,,,,,,,,65
416,80,10.1007/s11661-005-0218-9,AlCoCrCuFeNi,FCC+BCC,M,AC,,7.4,,C,25.0,948.0,,,,,,,,,,,,,,65
417,80,10.1007/s11661-005-0218-9,AlCoCrCuFeNi,FCC+BCC,M,AC,,7.4,,C,600.0,561.0,,,,,,,,,,,,,,65
418,80,10.1007/s11661-005-0218-9,AlCoCrCuFeNi,FCC+BCC,M,AC,,7.4,,C,700.0,307.0,,,,,,,,,,,,,,65
419,80,10.1007/s11661-005-0218-9,AlCoCrCuFeNi,FCC+BCC,M,AC,,7.4,,C,800.0,172.0,,,,,,,,,,,,,,65
420,80,10.1007/s11661-005-0218-9,AlCoCrCuFeNi,FCC+BCC,M,AC,,7.4,,C,900.0,98.0,,,,,,,,,,,,,,65
421,81,10.1016/j.jallcom.2015.11.050,AlCrMoNbTi,BCC,S,AC,,6.6,,C,25.0,,,,,,,92.0,,,,,,,,66
422,81,10.1016/j.jallcom.2015.11.050,AlCrMoNbTi,BCC,S,AC,,6.6,,C,400.0,1080.0,1100.0,2,,,,92.0,,,,,,,,66
423,81,10.1016/j.jallcom.2015.11.050,AlCrMoNbTi,BCC,S,AC,,6.6,,C,600.0,1060.0,1170.0,3,,,,92.0,,,,,,,,66
424,81,10.1016/j.jallcom.2015.11.050,AlCrMoNbTi,BCC,S,AC,,6.6,,C,800.0,860.0,1000.0,2,,,,92.0,,,,,,,,66
425,81,10.1016/j.jallcom.2015.11.050,AlCrMoNbTi,BCC,S,AC,,6.6,,C,1000.0,594.0,630.0,15,,,,92.0,,,,,,,,66
426,81,10.1016/j.jallcom.2015.11.050,AlCrMoNbTi,BCC,S,AC,,6.6,,C,1200.0,105.0,116.0,24,,,,92.0,,,,,,,,66
427,Couzinie_11,10.1007/s11661-017-4386-1,AlCrMoNbTi,BCC,S,A,,6.6,,C,600.0,930.0,,,,,,92.0,,,,,,,,68
428,Couzinie_11,10.1007/s11661-017-4386-1,AlCrMoNbTi,BCC,S,A,,6.6,,C,800.0,875.0,,,,,,,,,,,,,,68
429,Couzinie_11,10.1007/s11661-017-4386-1,AlCrMoNbTi,BCC,S,A,,6.6,,C,1000.0,550.0,,,,,,,,,,,,,,68
430,Couzinie_11,10.1007/s11661-017-4386-1,AlCrMoNbTi,BCC,S,A,,6.6,,C,1200.0,150.0,,,,,,,,,,,,,,68
431,Couzinie_11,10.1007/s11661-017-4386-1,AlCrMoTi,BCC,S,A,,6.0,,C,400.0,1070.0,,,,,,,,,,,,,,68
432,Couzinie_11,10.1007/s11661-017-4386-1,AlCrMoTi,BCC,S,A,,6.0,,C,600.0,1020.0,,,,,,,,,,,,,,68
433,Couzinie_11,10.1007/s11661-017-4386-1,AlCrMoTi,BCC,S,A,,6.0,,C,800.0,875.0,,,,,,,,,,,,,,68
434,Couzinie_11,10.1007/s11661-017-4386-1,AlCrMoTi,BCC,S,A,,6.0,,C,1000.0,375.0,,,,,,,,,,,,,,68
435,Couzinie_11,10.1007/s11661-017-4386-1,AlCrMoTi,BCC,S,A,,6.0,,C,1200.0,100.0,,,,,,,,,,,,,,68
436,Couzinie_11,10.1007/s11661-017-4386-1,AlMoNbTi,BCC,S,A,,6.5,,C,600.0,520.0,,,,,,,,,,,,,,68
437,Couzinie_11,10.1007/s11661-017-4386-1,AlMoNbTi,BCC,S,A,,6.5,,C,800.0,500.0,,,,,,,,,,,,,,68
438,Couzinie_11,10.1007/s11661-017-4386-1,AlMoNbTi,BCC,S,A,,6.5,,C,1000.0,540.0,,,,,,,,,,,,,,68
439,Couzinie_11,10.1007/s11661-017-4386-1,AlMoNbTi,BCC,S,A,,6.5,,C,1200.0,200.0,,,,,,,,,,,,,,68
440,Couzinie_14,10.1016/j.msea.2017.08.019,AlNbTiV,B2,S,A,,5.5,,C,600.0,780.0,1005.0,,,,,,,,,,,,,69
441,Couzinie_14,10.1016/j.msea.2017.08.019,AlNbTiV,B2,S,A,,5.5,,C,800.0,560.0,700.0,,,,,,,,,,,,,69
442,Couzinie_14,10.1016/j.msea.2017.08.019,AlNbTiV,B2,S,A,,5.5,,C,25.0,1000.0,1280.0,,,,,,,,,,,,,69
443,Couzinie_14,10.1016/j.msea.2017.08.019,AlNbTiVZr,B2+Al3Zr5+Laves,M,A,,5.7,,C,600.0,1155.0,1385.0,,,,,,,,,,,,,69
444,Couzinie_14,10.1016/j.msea.2017.08.019,AlNbTiVZr,B2+Al3Zr5+Laves,M,A,,5.7,,C,800.0,550.0,600.0,,,,,,,,,,,,,69
445,Couzinie_14,10.1016/j.msea.2017.08.019,AlNbTiVZr,B2+Al3Zr5+Laves,M,A,,5.7,,C,25.0,1500.0,1675.0,,,,,,,,,,,,,69
446,Couzinie_14,10.1016/j.msea.2017.08.019,AlNbTiVZr0.1,B2+Al3Zr5,M,A,,5.5,,C,600.0,975.0,1085.0,,,,,,,,,,,,,69
447,Couzinie_14,10.1016/j.msea.2017.08.019,AlNbTiVZr0.1,B2+Al3Zr5,M,A,,5.5,,C,800.0,865.0,920.0,,,,,,,,,,,,,69
448,Couzinie_14,10.1016/j.msea.2017.08.019,AlNbTiVZr0.1,B2+Al3Zr5,M,A,,5.5,,C,25.0,1290.0,1395.0,,,,,,,,,,,,,69
449,Couzinie_14,10.1016/j.msea.2017.08.019,AlNbTiVZr0.25,B2+Al3Zr5,M,A,,5.6,,C,600.0,1065.0,1260.0,,,,,,,,,,,,,69
450,Couzinie_14,10.1016/j.msea.2017.08.019,AlNbTiVZr0.25,B2+Al3Zr5,M,A,,5.6,,C,800.0,855.0,865.0,,,,,,,,,,,,,69
451,Couzinie_14,10.1016/j.msea.2017.08.019,AlNbTiVZr0.25,B2+Al3Zr5,M,A,,5.6,,C,25.0,1360.0,1480.0,,,,,,,,,,,,,69
452,Couzinie_14,10.1016/j.msea.2017.08.019,AlNbTiVZr0.5,B2+Al3Zr5+Laves,M,A,,5.6,,C,600.0,1135.0,1425.0,,,,,,,,,,,,,69
453,Couzinie_14,10.1016/j.msea.2017.08.019,AlNbTiVZr0.5,B2+Al3Zr5+Laves,M,A,,5.6,,C,800.0,675.0,740.0,,,,,,,,,,,,,69
454,Couzinie_14,10.1016/j.msea.2017.08.019,AlNbTiVZr0.5,B2+Al3Zr5+Laves,M,A,,5.6,,C,25.0,1485.0,,,,,,,,,,,,,,69
455,Couzinie_14,10.1016/j.msea.2017.08.019,AlNbTiVZr1.5,B2+Al3Zr5+Laves,M,A,,5.8,,C,600.0,1195.0,1195.0,,,,,,,,,,,,,69
456,Couzinie_14,10.1016/j.msea.2017.08.019,AlNbTiVZr1.5,B2+Al3Zr5+Laves,M,A,,5.8,,C,800.0,180.0,395.0,,,,,,,,,,,,,69
457,Couzinie_14,10.1016/j.msea.2017.08.019,AlNbTiVZr1.5,B2+Al3Zr5+Laves,M,A,,5.8,,C,25.0,1535.0,1550.0,,,,,,,,,,,,,69
458,Couzinie_16,10.1007/s11665-017-2799-z,CoCrMoNb,BCC+Laves,M,AC,,8.8,,C,25.0,,1419.6,,,,,,,,,,,,,70
459,Couzinie_16,10.1007/s11665-017-2799-z,CoCrMoNbTi,BCC+Laves,M,AC,,7.8,,C,25.0,,1096.8,,,,,,,,,,,,,70
460,Couzinie_16,10.1007/s11665-017-2799-z,CoCrMoNbTi0.2,BCC+Laves,M,AC,,8.5,,C,25.0,,1905.6,,,,,,,,,,,,,70
461,Couzinie_16,10.1007/s11665-017-2799-z,CoCrMoNbTi0.4,BCC,S,AC,,8.3,,C,25.0,,1771.3,,,220.1,,,,,,,,,,70
462,Couzinie_16,10.1007/s11665-017-2799-z,CoCrMoNbTi0.5,BCC+Laves,M,AC,,8.2,,C,25.0,,1609.2,,,,,,,,,,,,,70
463,Couzinie_17,10.1016/j.ijrmhm.2014.07.009,CrHfNbTiZr,BCC+Laves,M,A,,8.2,,C,25.0,1457.0,1908.0,,,,,,,,,,,,,71
464,Couzinie_17,10.1016/j.ijrmhm.2014.07.009,CrHfNbTiZr,BCC+Laves,M,A,,8.2,,C,25.0,1420.0,1885.0,4.2,,,,,,,,,,,,71
465,Couzinie_17,10.1016/j.ijrmhm.2014.07.009,CrHfNbTiZr,BCC+Laves,M,A,,8.2,,C,25.0,1328.0,1884.0,,,,,,,,,,,,,71
466,Couzinie_17,10.1016/j.ijrmhm.2014.07.009,CrHfNbTiZr,BCC+Laves,M,A,,8.2,,C,25.0,1322.0,1726.0,,,,,,,,,,,,,71
467,Couzinie_17,10.1016/j.ijrmhm.2014.07.009,CrHfNbTiZr,BCC+Laves,M,AC,,8.2,,C,25.0,1375.0,2130.0,3,,,,,,,,,,,,71
468,Couzinie_17,10.1016/j.ijrmhm.2014.07.009,HfNbTiVZr,BCC+Laves,M,A,,8.0,,C,25.0,1157.0,1468.0,,,,,,,,,,,,,71
469,Couzinie_17,10.1016/j.ijrmhm.2014.07.009,HfNbTiVZr,BCC,S,A,,8.0,,C,25.0,1253.0,1393.0,,,99.0,,,,,,,,,,71
470,Couzinie_17,10.1016/j.ijrmhm.2014.07.009,HfNbTiVZr,BCC,S,A,,8.0,,C,25.0,1140.0,1463.0,,,99.0,,,,,,,,,,71
471,Couzinie_17,10.1016/j.ijrmhm.2014.07.009,HfNbTiVZr,BCC,S,A,,8.0,,C,25.0,1120.0,1376.0,30,,99.0,,,,,,,,,,71
472,Couzinie_17,10.1016/j.ijrmhm.2014.07.009,HfNbTiVZr,BCC+Laves,M,AC,,8.0,,C,25.0,1170.0,1463.0,29.6,,,,,,,,,,,,71
473,Couzinie_20,10.1016/j.matchemphys.2017.06.054,CrTaTi0.17VW,BCC+Laves,M,SPS,,12.5,715.0,C,25.0,2034.0,,1-2,,,,,,,"Jasper: Added HV values from Fig 5, corrected alloy formula to reflect what is stated in the article",,,,,72
474,Couzinie_20,10.1016/j.matchemphys.2017.06.054,CrTaTi0.17VW,BCC+Laves,M,SPS,,12.5,,C,1200.0,750.0,,1-2,,,,,,,,,,,,72
475,Couzinie_20,10.1016/j.matchemphys.2017.06.054,CrTaTi0.3VW,BCC+Laves,M,SPS,,12.2,780.0,C,25.0,2050.0,,1-2,,,,,,,,,,,,72
476,Couzinie_20,10.1016/j.matchemphys.2017.06.054,CrTaTi0.3VW,BCC+Laves,M,SPS,,12.2,,C,1200.0,586.0,,1-2,,,,,,,,,,,,72
477,Couzinie_20,10.1016/j.matchemphys.2017.06.054,CrTaVW,BCC+Laves,M,SPS,,12.9,715.0,C,25.0,2327.0,,1-2,,,,,,,,,,,,72
478,Couzinie_20,10.1016/j.matchemphys.2017.06.054,CrTaVW,BCC+Laves,M,SPS,,12.9,,C,1200.0,979.0,,1-2,,,,,,,,,,,,72
479,Couzinie_21,10.1080/14786435.2015.1028506,Hf0.4Nb1.54Ta1.54Ti0.89Zr0.64,BCC,S,AC,,10.4,,C,60.0,795.0,,,,125.0,,,,,,,,,,73
480,Couzinie_21,10.1080/14786435.2015.1028506,Hf0.4Nb1.54Ta1.54Ti0.89Zr0.64,BCC,S,AC,,10.4,,C,100.0,765.0,,,,,,,,,,,,,,73
481,Couzinie_21,10.1080/14786435.2015.1028506,Hf0.4Nb1.54Ta1.54Ti0.89Zr0.64,BCC,S,AC,,10.4,,C,200.0,650.0,,,,,,,,,,,,,,73
482,Couzinie_21,10.1080/14786435.2015.1028506,Hf0.4Nb1.54Ta1.54Ti0.89Zr0.64,BCC,S,AC,,10.4,,C,300.0,590.0,,,,,,,,,,,,,,73
483,Couzinie_21,10.1080/14786435.2015.1028506,Hf0.4Nb1.54Ta1.54Ti0.89Zr0.64,BCC,S,AC,,10.4,,C,25.0,845.0,,,,,,,,,,,,,,73
484,Couzinie_22,10.1016/j.jallcom.2015.11.091,Hf0.5Mo0.5NbSi0.1TiZr,BCC+laves,M,AC,,7.7,442.0,C,25.0,1350.0,2150.0,,28.0,,,,,,,,,,,74
485,Couzinie_22,10.1016/j.jallcom.2015.11.091,Hf0.5Mo0.5NbSi0.3TiZr,BCC+laves,M,AC,,7.5,494.0,C,25.0,1370.0,1950.0,,23.0,,,,,,,,,,,74
486,Couzinie_22,10.1016/j.jallcom.2015.11.091,Hf0.5Mo0.5NbSi0.5TiZr,BCC+laves,M,AC,,7.2,524.0,C,25.0,1600.0,1900.0,,23.0,,,,,,,,,,,74
487,Couzinie_22,10.1016/j.jallcom.2015.11.091,Hf0.5Mo0.5NbSi0.7TiZr,BCC+laves,M,AC,,7.0,580.0,C,25.0,1550.0,1900.0,,12.0,,,,,,,,,,,74
488,Couzinie_22,10.1016/j.jallcom.2015.11.091,Hf0.5Mo0.5NbSi0.9TiZr,BCC+laves,M,AC,,6.8,640.0,C,25.0,1650.0,2000.0,,9.0,,,,,,,,,,,74
489,Couzinie_22,10.1016/j.jallcom.2015.11.091,Hf0.5Mo0.5NbTiZr,BCC+laves,S,AC,,7.9,400.0,C,25.0,1150.0,1500.0,,25.0,123.1,,,,,,,,,,74
490,Couzinie_24,10.1016/j.msea.2017.10.073,Hf0.75NbTa0.5Ti1.5Zr1.25,BCC,S,CR,,8.4,,C,-268.8,2250.0,,,,103.1,,,,,,,,,,75
491,Couzinie_24,10.1016/j.msea.2017.10.073,Hf0.75NbTa0.5Ti1.5Zr1.25,BCC,S,CR,,8.4,,C,-268.8,2210.0,,,,103.1,,,,,,,,,,75
492,Couzinie_24,10.1016/j.msea.2017.10.073,Hf0.75NbTa0.5Ti1.5Zr1.25,BCC,S,CR,,8.4,,C,-196.0,1880.0,,,,,,,,,,,,,,75
493,Couzinie_24,10.1016/j.msea.2017.10.073,Hf0.75NbTa0.5Ti1.5Zr1.25,BCC,S,CR,,8.4,,C,-196.0,1750.0,,,,,,,,,,,,,,75
494,Couzinie_24,10.1016/j.msea.2017.10.073,Hf0.75NbTa0.5Ti1.5Zr1.25,BCC,S,CR,,8.4,,C,-153.0,1640.0,,,,,,,,,,,,,,75
495,Couzinie_24,10.1016/j.msea.2017.10.073,Hf0.75NbTa0.5Ti1.5Zr1.25,BCC,S,CR,,8.4,,C,-153.0,1550.0,,,,,,,,,,,,,,75
496,Couzinie_24,10.1016/j.msea.2017.10.073,Hf0.75NbTa0.5Ti1.5Zr1.25,BCC,S,CR,,8.4,,C,-103.0,1380.0,,,,,,,,,,,,,,75
497,Couzinie_24,10.1016/j.msea.2017.10.073,Hf0.75NbTa0.5Ti1.5Zr1.25,BCC,S,CR,,8.4,,C,-103.0,1370.0,,,,,,,,,,,,,,75
498,Couzinie_24,10.1016/j.msea.2017.10.073,Hf0.75NbTa0.5Ti1.5Zr1.25,BCC,S,CR,,8.4,,C,-43.0,1200.0,,,,,,,,,,,,,,75
499,Couzinie_24,10.1016/j.msea.2017.10.073,Hf0.75NbTa0.5Ti1.5Zr1.25,BCC,S,CR,,8.4,,C,-43.0,1180.0,,,,,,,,,,,,,,75
500,Couzinie_24,10.1016/j.msea.2017.10.073,Hf0.75NbTa0.5Ti1.5Zr1.25,BCC,S,CR,,8.4,,C,72.0,1040.0,,,,,,,,,,,,,,75
501,Couzinie_24,10.1016/j.msea.2017.10.073,Hf0.75NbTa0.5Ti1.5Zr1.25,BCC,S,CR,,8.4,,C,72.0,1020.0,,,,,,,,,,,,,,75
502,Couzinie_24,10.1016/j.msea.2017.10.073,Hf0.75NbTa0.5Ti1.5Zr1.25,BCC,S,CR,,8.4,,C,25.0,1150.0,,,,,,,,,,,,,,75
503,Couzinie_24,10.1016/j.msea.2017.10.073,Hf0.75NbTa0.5Ti1.5Zr1.25,BCC,S,CR,,8.4,,C,25.0,1100.0,,,,,,,,,,,,,,75
504,Couzinie_24,10.1016/j.msea.2017.10.073,Hf0.75NbTa0.5Ti1.5Zr1.25,BCC,S,CR+A,,8.4,,C,-268.8,2390.0,,,,103.1,,,,,,,,,,75
505,Couzinie_24,10.1016/j.msea.2017.10.073,Hf0.75NbTa0.5Ti1.5Zr1.25,BCC,S,CR+A,,8.4,,C,-196.0,1920.0,,,,,,,,,,,,,,75
506,Couzinie_24,10.1016/j.msea.2017.10.073,Hf0.75NbTa0.5Ti1.5Zr1.25,BCC,S,CR+A,,8.4,,C,-153.0,1370.0,,,,,,,,,,,,,,75
507,Couzinie_24,10.1016/j.msea.2017.10.073,Hf0.75NbTa0.5Ti1.5Zr1.25,BCC,S,CR+A,,8.4,,C,-103.0,1250.0,,,,,,,,,,,,,,75
508,Couzinie_24,10.1016/j.msea.2017.10.073,Hf0.75NbTa0.5Ti1.5Zr1.25,BCC,S,CR+A,,8.4,,C,-43.0,1020.0,,,,,,,,,,,,,,75
509,Couzinie_24,10.1016/j.msea.2017.10.073,Hf0.75NbTa0.5Ti1.5Zr1.25,BCC,S,CR+A,,8.4,,C,72.0,640.0,,,,,,,,,,,,,,75
510,Couzinie_24,10.1016/j.msea.2017.10.073,Hf0.75NbTa0.5Ti1.5Zr1.25,BCC,S,CR+A,,8.4,,C,25.0,890.0,,,,,,,,,,,,,,75
511,Couzinie_26,10.1016/j.jallcom.2016.10.014,HfMo0.5NbSi0.3TiV0.5,BCC+M5Si3,M,AC,,8.5,,C,1000.0,398.0,430.0,,,,,,,,,,,,,76
512,Couzinie_26,10.1016/j.jallcom.2016.10.014,HfMo0.5NbSi0.3TiV0.5,BCC+M5Si3,M,AC,,8.5,,C,25.0,1617.0,2016.0,,,,,,,,,,,,,76
513,Couzinie_26,10.1016/j.jallcom.2016.10.014,HfMo0.5NbSi0.3TiV0.5,BCC+M5Si3,M,AC,,8.5,,C,1200.0,166.0,187.0,,,,,,,,,,,,,76
514,Couzinie_26,10.1016/j.jallcom.2016.10.014,HfMo0.5NbSi0.5TiV0.5,BCC+M5Si3,M,AC,,8.2,,C,1000.0,614.0,696.0,,,,,,,,,,,,,76
515,Couzinie_26,10.1016/j.jallcom.2016.10.014,HfMo0.5NbSi0.5TiV0.5,BCC+M5Si3,M,AC,,8.2,,C,25.0,1787.0,2052.0,,,,,,,,,,,,,76
516,Couzinie_26,10.1016/j.jallcom.2016.10.014,HfMo0.5NbSi0.5TiV0.5,BCC+M5Si3,M,AC,,8.2,,C,1200.0,188.0,219.0,,,,,,,,,,,,,76
517,Couzinie_26,10.1016/j.jallcom.2016.10.014,HfMo0.5NbSi0.7TiV0.5,BCC+M5Si3,M,AC,,7.9,,C,1000.0,673.0,741.0,,,,,,,,,,,,,76
518,Couzinie_26,10.1016/j.jallcom.2016.10.014,HfMo0.5NbSi0.7TiV0.5,BCC+M5Si3,M,AC,,7.9,,C,25.0,2134.0,2242.0,,,,,,,,,,,,,76
519,Couzinie_26,10.1016/j.jallcom.2016.10.014,HfMo0.5NbSi0.7TiV0.5,BCC+M5Si3,M,AC,,7.9,,C,1200.0,235.0,268.0,,,,,,,,,,,,,76
520,Couzinie_26,10.1016/j.jallcom.2016.10.014,HfMo0.5NbTiV0.5,BCC,S,AC,,9.0,,C,1000.0,368.0,394.0,,,131.9,,,,,,,,,,76
521,Couzinie_26,10.1016/j.jallcom.2016.10.014,HfMo0.5NbTiV0.5,BCC,S,AC,,9.0,,C,1200.0,60.0,,,,,,,,,,,,,,76
522,Couzinie_26,10.1016/j.jallcom.2016.10.014,HfMo0.5NbTiV0.5,BCC,S,AC,,9.0,,C,25.0,1260.0,,,,,,,,,,,,,,76
523,Couzinie_29,10.1080/21663831.2016.1221861,HfNb0.18Ta0.18Ti1.27Zr,BCC,S,CR+A,,8.5,,T,25.0,540.0,995.0,,,95.2,,,,,,,,,,77
524,Couzinie_3,10.1016/j.matdes.2017.11.033,Al0.25NbTaTiZr,BCC+B2,M,HIP+A,,8.6,,C,1000.0,366.0,408.0,,,,,,,,,,,,,78
525,Couzinie_3,10.1016/j.matdes.2017.11.033,Al0.25NbTaTiZr,BCC+B2,M,HIP+A,,8.6,,C,25.0,1745.0,1830.0,,,,,,,,,,,,,78
526,Couzinie_3,10.1016/j.matdes.2017.11.033,Al0.5Mo0.5NbTa0.5TiZr,BCC+B2,M,HIP+A,,7.6,,C,1000.0,579.0,646.0,,,,,,,,,,,,,78
527,Couzinie_3,10.1016/j.matdes.2017.11.033,Al0.5Mo0.5NbTa0.5TiZr,BCC+B2,M,HIP+A,,7.6,,C,25.0,2350.0,2460.0,,,,,,,,,,,,,78
528,Couzinie_3,10.1016/j.matdes.2017.11.033,AlMo0.5NbTa0.5TiZr,BCC+B2,M,HIP+A,,7.1,,C,25.0,2197.0,2370.0,,,,,,,,,,,,,78
529,Couzinie_3,10.1016/j.matdes.2017.11.033,AlMo0.5NbTa0.5TiZr0.5,B2,S,HIP+A,,7.2,,C,1000.0,935.0,1019.0,,,,,,,,,,,,,78
530,Couzinie_3,10.1016/j.matdes.2017.11.033,AlMo0.5NbTa0.5TiZr0.5,B2,S,HIP+A,,7.2,,C,25.0,,1320.0,,,,,,,,,,,,,78
531,Couzinie_3,10.1016/j.matdes.2017.11.033,AlNbTa0.5TiZr0.5,B2,S,HIP+A,,6.9,,C,1000.0,535.0,542.0,,,,,,,,,,,,,78
532,Couzinie_3,10.1016/j.matdes.2017.11.033,AlNbTa0.5TiZr0.5,B2,S,HIP+A,,6.9,,C,25.0,1352.0,1357.0,,,,,,,,,,,,,78
533,Couzinie_31,10.4028/www.scientific.net/MSF.849.76,HfNbSi0.5TiVZr,BCC+Laves+M5Si3,M,A,,7.5,,C,400.0,1273.0,1335.0,14.5,,,,,,,,,,,,79
534,Couzinie_31,10.4028/www.scientific.net/MSF.849.76,HfNbSi0.5TiVZr,BCC+Laves+M5Si3,M,A,,7.5,,C,600.0,597.0,651.0,>50,,,,,,,,,,,,79
535,Couzinie_31,10.4028/www.scientific.net/MSF.849.76,HfNbSi0.5TiVZr,BCC+Laves+M5Si3,M,A,,7.5,,C,800.0,102.0,107.0,>50,,,,,,,,,,,,79
536,Couzinie_31,10.4028/www.scientific.net/MSF.849.76,HfNbSi0.5TiVZr,BCC+Laves+M5Si3,M,A,,7.5,,C,25.0,1483.0,1611.0,9.5,,,,,,,,,,,,79
537,Couzinie_31,10.4028/www.scientific.net/MSF.849.76,HfNbSi0.5TiVZr,BCC+Laves+M5Si3,M,AC,,7.5,,C,600.0,920.0,1252.0,>50,,,,,,,,,,,,79
538,Couzinie_31,10.4028/www.scientific.net/MSF.849.76,HfNbSi0.5TiVZr,BCC+Laves+M5Si3,M,AC,,7.5,,C,800.0,371.0,427.0,>50,,,,,,,,,,,,79
539,Couzinie_31,10.4028/www.scientific.net/MSF.849.76,HfNbSi0.5TiVZr,BCC+Laves+M5Si3,M,AC,,7.5,,C,25.0,1540.0,1643.0,16.8,,,,,,,,,,,,79
540,Couzinie_32,10.1016/j.actamat.2017.09.035,HfNbTaTiZr,BCC,S,SPD,0.05,9.9,420.0,T,25.0,1900.0,,7.9,,110.6,,,,,,,,,,80
541,Couzinie_32,10.1016/j.actamat.2017.09.035,HfNbTaTiZr,BCC+HCP,M,SPD+A,0.05,9.9,530.0,T,25.0,1520.0,,1.7,,,,,,,,,,,,80
542,Couzinie_32,10.1016/j.actamat.2017.09.035,HfNbTaTiZr,BCC+BCC+HCP,M,SPD+A,0.1,9.9,340.0,T,25.0,795.0,,5,,,,,,,,,,,,80
543,Couzinie_32,10.1016/j.actamat.2017.09.035,HfNbTaTiZr,BCC,S,CR+A,100,9.9,309.0,T,25.0,830.0,840.0,9.2,,110.6,,,,,,,,,,80
544,Couzinie_33,10.1016/j.jallcom.2015.07.209,HfNbTaTiZr,BCC,S,CR,,9.9,366.0,T,25.0,1202.0,1295.0,4.7,,110.6,,,,,,,,,,81
545,Couzinie_33,10.1016/j.jallcom.2015.07.209,HfNbTaTiZr,BCC+BCC,M,CR+A,,9.9,,T,25.0,1303.0,1334.0,,,,,,,,,,,,,81
546,Couzinie_33,10.1016/j.jallcom.2015.07.209,HfNbTaTiZr,BCC,S,CR+A,,9.9,351.0,T,25.0,1145.0,1262.0,9.7,,110.6,,,,,,,,,,81
547,Couzinie_34,10.1016/j.matlet.2016.08.060,HfNbTaTiZr,BCC,S,CR+A,,9.9,,T,25.0,958.0,974.0,,,110.6,,,,,,,,,,82
548,Couzinie_34,10.1016/j.matlet.2016.08.060,HfNbTaTiZr,BCC,S,CR+A,,9.9,,T,25.0,944.0,959.0,,,110.6,,,,,,,,,,82
549,Couzinie_34,10.1016/j.matlet.2016.08.060,HfNbTaTiZr,BCC,S,CR+A,,9.9,,T,25.0,940.0,953.0,,,110.6,,,,,,,,,,82
550,Couzinie_35,10.1016/j.actamat.2017.09.062,HfNbTaTiZr,BCC,S,CR+A,,9.9,,T,25.0,940.0,1080.0,,,110.6,,,,,,,,,,83
551,Couzinie_37,10.1016/j.msea.2015.08.024,HfNbTaTiZr,BCC,S,AC,,9.9,,C,25.0,905.0,,,,110.6,,,,,,,,,,84
552,Couzinie_38,10.1016/j.matchar.2015.11.018,HfNbTaTiZr,BCC,S,AC,,9.9,,C,25.0,890.0,,,,110.6,,,,,,,,,,85
553,Couzinie_39,10.1016/j.msea.2015.12.017,HfNbTaTiZr,BCC,S,AC,,9.9,,T,25.0,828.0,862.0,,,110.6,,,,,,,,,,86
554,Couzinie_39,10.1016/j.msea.2015.12.017,HfNbTaTiZr,BCC,S,AC,,9.9,,T,25.0,827.0,856.0,,,110.6,,,,,,,,,,86
555,Couzinie_39,10.1016/j.msea.2015.12.017,HfNbTaTiZr,BCC,S,AC,,9.9,,T,25.0,820.0,869.0,,,110.6,,,,,,,,,,86
556,Couzinie_39,10.1016/j.msea.2015.12.017,HfNbTaTiZr,BCC,S,AC,,9.9,,T,25.0,803.0,810.0,,,110.6,,,,,,,,,,86
557,Couzinie_4,10.4028/www.scientific.net/MSF.898.638,Al0.2MoTaTiV,BCC,S,AC,,9.2,,C,25.0,1021.0,1249.0,,,184.0,,,,,,,,,,87
558,Couzinie_4,10.4028/www.scientific.net/MSF.898.638,Al0.6MoTaTiV,BCC,S,AC,,8.6,,C,25.0,962.0,1033.0,,,174.1,,,,,,,,,,87
559,Couzinie_4,10.4028/www.scientific.net/MSF.898.638,AlMoTaTiV,BCC,S,AC,,8.2,,C,25.0,,735.0,,,165.8,,,,,,,,,,87
560,Couzinie_4,10.4028/www.scientific.net/MSF.898.638,MoTaTiV,BCC,S,AC,,9.5,,C,25.0,1221.0,1454.0,,,189.8,,,,,,,,,,87
561,Couzinie_41,10.1016/j.actamat.2016.01.018,HfNbTaZr,BCC+HCP,M,A,,11.1,571.0,C,25.0,2310.0,,0.3,,,,,,,,,,,,88
562,Couzinie_41,10.1016/j.actamat.2016.01.018,HfNbTaZr,BCC+HCP,M,A,,11.1,536.0,C,25.0,2100.0,2200.0,3.5,,,,,,,,,,,,88
563,Couzinie_41,10.1016/j.actamat.2016.01.018,HfNbTaZr,BCC+HCP,M,A,,11.1,,C,25.0,2020.0,2030.0,1.7,,,,,,,,,,,,88
564,Couzinie_41,10.1016/j.actamat.2016.01.018,HfNbTaZr,BCC+HCP,M,A,,11.1,550.0,C,25.0,1950.0,2010.0,2.2,,,,,,,,,,,,88
565,Couzinie_41,10.1016/j.actamat.2016.01.018,HfNbTaZr,BCC,S,AC,,11.1,365.0,C,25.0,1315.0,1800.0,21.6,,109.3,,,,,,,,,,88