,REFERENCE: tag,REFERENCE: doi,FORMULA,PROPERTY: Type of phases,PROPERTY: Single/Multiphase,PROPERTY: synthesis method,PROPERTY: grain size ($\mu$m),PROPERTY: ROM Density (g/cm$^3$),PROPERTY: HV,PROPERTY: Type of test,PROPERTY: Test temperature ($^\circ$C),PROPERTY: YS (MPa),PROPERTY: UTS (MPa),PROPERTY: Elongation (%),PROPERTY: Elongation plastic (%),PROPERTY: ROM Young modulus (GPa),PROPERTY: Exp. Young modulus (GPa),PROPERTY: O content (wppm),PROPERTY: N content (wppm),PROPERTY: C content (wppm),REFERENCE: comment,Internal Reference #,Original DOI,PROPERTY: Exp. Density (g/cm$^3$),Unnamed: 22,IDENTIFIER: Reference ID
469,J59,10.1016/j.msea.2018.12.077,V10Cr15Mn5Fe35Co10Ni25,FCC,S,CR + A,8.7,,,T,25.0,401,717,49,,,,,,,Added data from Fig 3; total elongation recorded,,,,,221
470,J59,10.1016/j.msea.2018.12.077,V10Cr15Mn5Fe35Co10Ni25,FCC,S,CR + A,10.4,,,T,25.0,350,690,50,,,,,,,Added data from Fig 3; total elongation recorded,,,,,221
471,J59,10.1016/j.msea.2018.12.077,V10Cr15Mn5Fe35Co10Ni25,FCC,S,CR + A,11.2,,,T,25.0,312,660,51,,,,,,,Added data from Fig 3; total elongation recorded,,,,,221
472,J59,10.1016/j.msea.2018.12.077,V10Cr15Mn5Fe35Co10Ni25,FCC,S,CR + A,48.2,,,T,25.0,240,610,53,,,,,,,Added data from Fig 3; total elongation recorded,,,,,221
473,J59,10.1016/j.msea.2018.12.077,V10Cr15Mn5Fe35Co10Ni25,FCC,S,CR + A,82.7,,,T,25.0,210,593,52,,,,,,,,,,,,221
474,J60,10.1016/j.jallcom.2019.07.195,CoCrFeNiMn,2FCC,M,SPS,,,410.9,T,25.0,,,,,,184,,,,Can someone re-review this article. I'm not completely confident in my reporting CHECKED (CF) added hardness in GPA; flexuarl strength isn't yield strength,,,7.5,,223
475,J61,10.1016/j.jallcom.2019.07.100,Al2CoCrFeNi,BCC + B2,M,AC,80.67,,581.7,C,25.0,1241,,9.98,,,,,,,"Misplaced Elongation values into Young's Modulus, amended",,,,,224
476,J61,10.1016/j.jallcom.2019.07.100,Al1.8CoCrFeNiTi0.2,BCC + B2,M,AC,66.93,,605.5,C,25.0,1324,,10.02,,,,,,,,,,,,224
477,J61,10.1016/j.jallcom.2019.07.100,Al1.5CoCrFeNiTi0.5,BCC + B2,M,AC,56.27,,641.7,C,25.0,1566,,11.85,,,,,,,,,,,,224
478,J61,10.1016/j.jallcom.2019.07.100,Al1.2CoCrFeNiTi0.8,BCC + B2,M,AC,49.95,,639.6,C,25.0,1503,,7.73,,,,,,,,,,,,224
479,J61,10.1016/j.jallcom.2019.07.100,AlCoCrFeNiTi,BCC + B2 + Laves,M,AC,30.49,,703,C,25.0,1448,,6.18,,,,,,,,,,,,224
480,J61,10.1016/j.jallcom.2019.07.100,Al0.8CoCrFeNiTi1.2,BCC + B2 + Laves,M,AC,22.03,,856.9,C,25.0,1272,,3.15,,,,,,,,,,,,224
481,J61-38,10.1016/j.jallcom.2018.01.247,AlCoCrFeNi,,,,,,,C,25.0,1300,,24.2,,,,,,,"Extracted Engineering Values from Table 4, comes from multiple other references",38.0,10.1016/j.jallcom.2018.01.247,,,226
482,J61-38,10.1016/j.jallcom.2018.01.247,Al0.8CoCrFeNiTi0.2,,,,,,,C,25.0,968,,30.1,,,,,,,"Extracted Engineering Values from Table 4, comes from multiple other references",38.0,10.1016/j.jallcom.2018.01.247,,,226
483,J61-38,10.1016/j.jallcom.2018.01.247,Al0.5CoCrFeNiTi0.5,,,,,,,C,25.0,1100,,27.5,,,,,,,"Extracted Engineering Values from Table 4, comes from multiple other references",38.0,10.1016/j.jallcom.2018.01.247,,,226
484,J61-24,10.1016/j.matdes.2016.12.036,AlCoCuFeNi,,,,,,,C,25.0,1060,,19.1,,,,,,,"Extracted Engineering Values from Table 4, comes from multiple other references",24.0,10.1016/j.matdes.2016.12.036,,,225
485,J61-24,10.1016/j.matdes.2016.12.036,AlCoCuFeNiCr,,,,,,,C,25.0,1285,,24.6,,,,,,,"Extracted Engineering Values from Table 4, comes from multiple other references",24.0,10.1016/j.matdes.2016.12.036,,,225
486,J61-24,10.1016/j.matdes.2016.12.036,AlCoCuFeNiTi,,,,,,,C,25.0,1612,,12.8,,,,,,,"Extracted Engineering Values from Table 4, comes from multiple other references",24.0,10.1016/j.matdes.2016.12.036,,,225
487,J61-24,10.1016/j.matdes.2016.12.036,AlCoCuFeNiCrTi,,,,,,,C,25.0,1523,,8.1,,,,,,,"Extracted Engineering Values from Table 4, comes from multiple other references",24.0,10.1016/j.matdes.2016.12.036,,,225
488,J61-57,10.1016/j.jallcom.2018.07.346,AlCrFeNi,,,,,,,C,25.0,1271,,14,,,,,,,"Extracted Engineering Values from Table 4, comes from multiple other references",57.0,10.1016/j.jallcom.2018.07.346,,,227
489,J61-57,10.1016/j.jallcom.2018.07.346,AlCo0.25CrFeNi,,,,,,,C,25.0,1363,,19,,,,,,,"Extracted Engineering Values from Table 4, comes from multiple other references",57.0,10.1016/j.jallcom.2018.07.346,,,227
490,J61-57,10.1016/j.jallcom.2018.07.346,AlCo0.5CrFeNi,,,,,,,C,25.0,1349,,20,,,,,,,"Extracted Engineering Values from Table 4, comes from multiple other references",57.0,10.1016/j.jallcom.2018.07.346,,,227
491,J61-57,10.1016/j.jallcom.2018.07.346,AlCo0.75CrFeNi,,,,,,,C,25.0,1331,,20,,,,,,,"Extracted Engineering Values from Table 4, comes from multiple other references",57.0,10.1016/j.jallcom.2018.07.346,,,227
492,J61-57,10.1016/j.jallcom.2018.07.346,AlCoCrFeNi,,,,,,,C,25.0,1313,,19,,,,,,,"Extracted Engineering Values from Table 4, comes from multiple other references",57.0,10.1016/j.jallcom.2018.07.346,,,227
493,J61-58,10.1016/j.intermet.2016.09.003,CoCrFeMn,,,,,,,C,25.0,338,,4.3,,,,,,,"Extracted Engineering Values from Table 4, comes from multiple other references",58.0,10.1016/j.intermet.2016.09.003,,,228
494,J63,10.1016/j.jallcom.2019.06.301,AlCoCrFeNi,FCC + BCC,M,GA+A,,,,,,,,,,,,,,,Gas Atomization,,,,,229
495,J63,10.1016/j.jallcom.2019.06.301,AlCoCrFeNi,FCC + BCC,M,GA+A,,,,,,,,,,,,,,,Gas Atomization,,,,,229
496,J63,10.1016/j.jallcom.2019.06.301,AlCoCrFeNi,FCC + BCC,M,GA+A,,,,,,,,,,,,,,,Gas Atomization,,,,,229
497,J63,10.1016/j.jallcom.2019.06.301,AlCoCrFeNi,FCC + BCC,M,GA+A,,,,,,,,,,,,,,,Gas Atomization,,,,,229
498,J63,10.1016/j.jallcom.2019.06.301,AlCoCrFeNi,FCC + BCC,M,GA+A,,,,,,,,,,,,,,,Gas Atomization,,,,,229
499,J64,10.1016/j.jallcom.2019.06.138,HfNbTaTiZrW,BCC + Laves,M,AC,29.4,,,C,25.0,1550,,26.3,,,,,,,,,,,,230
500,J64,10.1016/j.jallcom.2019.06.138,HfNbTaTiZrMoW,BCC + Laves,M,AC,31.7,,,C,25.0,1637,,15.5,,,,,,,,,,,,230
501,J64,10.1016/j.jallcom.2019.06.138,HfNbTaTiZrW,BCC + Laves,M,AC,,,,C,800.0,577,,>35,,,,,,,,,,,,230
502,J64,10.1016/j.jallcom.2019.06.138,HfNbTaTiZrMoW,BCC + Laves,M,AC,,,,C,800.0,1065,,>35,,,,,,,,,,,,230
503,J64,10.1016/j.jallcom.2019.06.138,HfNbTaTiZrW,BCC + Laves,M,AC,,,,C,1000.0,409,,>35,,,,,,,,,,,,230
504,J64,10.1016/j.jallcom.2019.06.138,HfNbTaTiZrMoW,BCC + Laves,M,AC,,,,C,1000.0,736,,>35,,,,,,,,,,,,230
505,J64,10.1016/j.jallcom.2019.06.138,HfNbTaTiZrW,BCC + Laves,M,AC,,,,C,1200.0,345,,>35,,,,,,,,,,,,230
506,J64,10.1016/j.jallcom.2019.06.138,HfNbTaTiZrMoW,BCC + Laves,M,AC,,,,C,1200.0,703,,>35,,,,,,,,,,,,230
507,J65,10.1007/s12598-019-01310-6,NbZrTi,BCC,S,AC,,,372,C,25.0,1223,,48,,,,,,,,,,,,231
508,J65,10.1007/s12598-019-01310-6,NbHfZrTi,BCC,S,AC,,,351,C,25.0,1000,,52,,,,,,,,,,,,231
509,J65,10.1007/s12598-019-01310-6,NbZrTi,BCC,S,A,300,,,,,,,,,,,,,,,,,,,231
510,J65,10.1007/s12598-019-01310-6,NbHfZrTi,BCC,S,A,50,,,,,,,,,,,,,,,,,,,231
511,J65,10.1007/s12598-019-01310-6,NbZrTi,BCC,S,AC,,,,C,800.0,462,,51,,,,,,,Added total elongation values according to Fig 6,,,,,231
512,J65,10.1007/s12598-019-01310-6,NbHfZrTi,BCC,S,AC,,,,C,800.0,303,,51,,,,,,,Added total elongation values according to Fig 6,,,,,231
513,J65,10.1007/s12598-019-01310-6,NbZrTi,BCC,S,AC,,,,C,1000.0,218,,51,,,,,,,Added total elongation values according to Fig 6,,,,,231
514,J65,10.1007/s12598-019-01310-6,NbHfZrTi,BCC,S,AC,,,,C,1000.0,154,,51,,,,,,,Added total elongation values according to Fig 6,,,,,231
515,J66,10.1016/j.intermet.2019.106550,CoCrFeNi,FCC,S,AC,,,168.9,C,25.0,163,,80,,,,,,,,,,,,232
516,J66,10.1016/j.intermet.2019.106550,CoCrFeNiW0.2,FCC,S,AC,,,244,C,25.0,335,,52,,,,,,,,,,,,232
517,J66,10.1016/j.intermet.2019.106550,CoCrFeNiW0.5,FCC + $\mu$,M,AC,,,357.9,C,25.0,556,,35.6,,,,,,,,,,,,232
518,J67,10.1007/s40195-019-00935-x,MoNbFeCrV,BCC + Laves,M,AC,,,826,C,25.0,2663,,2.7,,,,,,,added hardness vickers from text,,,,,233
519,J67,10.1007/s40195-019-00935-x,MoNbFeCrTi,BCC + Laves,M,AC,,,792,C,25.0,1647,,0.9,,,,,,,added hardness vickers from text,,,,,233
520,J67,10.1007/s40195-019-00935-x,MoNbFeVTi,BCC + B2,M,AC,,,699,C,25.0,1707,,1.7,,,,,,,added hardness vickers from text,,,,,233
521,J68,10.1016/j.matchar.2019.109792,Al0.3Cu0.5FeCrNi2,FCC,S,CR + A,,,107,T,25.0,62,169,98,,,16.6,,,,,,,,,234
522,J68,10.1016/j.matchar.2019.109792,Al0.3Cu0.5FeCrNi2,FCC + L12,M,CR + A,,,209,T,25.0,350,642,73,,,47,,,,,,,,,234
523,J68,10.1016/j.matchar.2019.109792,Al0.3Cu0.5FeCrNi2,FCC + L12 + M23C6,M,CR + A,,,321,T,25.0,535,904,39,,,35.2,,,,,,,,,234
524,J68,10.1016/j.matchar.2019.109792,Al0.3Cu0.5FeCrNi2,FCC + L12 + M23C6,M,CR + A,,,159,T,25.0,255,584,88,,,51.4,,,,,,,,,234
525,J69,10.1016/j.jallcom.2019.05.322,HfNbTaTiZr,BCC,S,CR + A,60,,,,20.0,,,,,,88.9,,,,Paper focused on Young's Modulus,,,,,235
526,J69,10.1016/j.jallcom.2019.05.322,HfNbTaTiZr,BCC,S,CR + A,,,,,40.0,,,,,,88.6,,,,,,,,,235
527,J69,10.1016/j.jallcom.2019.05.322,HfNbTaTiZr,BCC,S,CR + A,,,,,60.0,,,,,,88.4,,,,,,,,,235
528,J69,10.1016/j.jallcom.2019.05.322,HfNbTaTiZr,BCC,S,CR + A,,,,,80.0,,,,,,88.1,,,,,,,,,235
529,J69,10.1016/j.jallcom.2019.05.322,HfNbTaTiZr,BCC,S,CR + A,,,,,100.0,,,,,,87.9,,,,,,,,,235
530,J69,10.1016/j.jallcom.2019.05.322,HfNbTaTiZr,BCC,S,CR + A,,,,,120.0,,,,,,87.7,,,,,,,,,235
531,J69,10.1016/j.jallcom.2019.05.322,HfNbTaTiZr,BCC,S,CR + A,,,,,140.0,,,,,,87.5,,,,,,,,,235
532,J69,10.1016/j.jallcom.2019.05.322,HfNbTaTiZr,BCC,S,CR + A,,,,,160.0,,,,,,87.3,,,,,,,,,235
533,J69,10.1016/j.jallcom.2019.05.322,HfNbTaTiZr,BCC,S,CR + A,,,,,180.0,,,,,,87.1,,,,,,,,,235
534,J69,10.1016/j.jallcom.2019.05.322,HfNbTaTiZr,BCC,S,CR + A,,,,,200.0,,,,,,86.9,,,,,,,,,235
535,J69,10.1016/j.jallcom.2019.05.322,HfNbTaTiZr,BCC,S,CR + A,,,,,220.0,,,,,,86.7,,,,,,,,,235
536,J69,10.1016/j.jallcom.2019.05.322,HfNbTaTiZr,BCC,S,CR + A,,,,,240.0,,,,,,86.5,,,,,,,,,235
537,J69,10.1016/j.jallcom.2019.05.322,HfNbTaTiZr,BCC,S,CR + A,,,,,260.0,,,,,,86.3,,,,,,,,,235
538,J69,10.1016/j.jallcom.2019.05.322,HfNbTaTiZr,BCC,S,CR + A,,,,,280.0,,,,,,86.1,,,,,,,,,235
539,J69,10.1016/j.jallcom.2019.05.322,HfNbTaTiZr,BCC,S,CR + A,,,,,300.0,,,,,,85.8,,,,,,,,,235
540,J69,10.1016/j.jallcom.2019.05.322,HfNbTaTiZr,BCC,S,CR + A,,,,,320.0,,,,,,85.5,,,,,,,,,235
541,J69,10.1016/j.jallcom.2019.05.322,HfNbTaTiZr,BCC,S,CR + A,,,,,340.0,,,,,,85.2,,,,,,,,,235
542,J69,10.1016/j.jallcom.2019.05.322,HfNbTaTiZr,BCC,S,CR + A,,,,,360.0,,,,,,84.9,,,,,,,,,235
543,J69,10.1016/j.jallcom.2019.05.322,HfNbTaTiZr,BCC,S,CR + A,,,,,380.0,,,,,,84.5,,,,,,,,,235
544,J69,10.1016/j.jallcom.2019.05.322,HfNbTaTiZr,BCC,S,CR + A,,,,,400.0,,,,,,84.2,,,,,,,,,235
545,J69,10.1016/j.jallcom.2019.05.322,HfNbTaTiZr,BCC,S,CR + A,,,,,420.0,,,,,,83.8,,,,,,,,,235
546,J69,10.1016/j.jallcom.2019.05.322,HfNbTaTiZr,BCC,S,CR + A,,,,,440.0,,,,,,83.5,,,,,,,,,235
547,J69,10.1016/j.jallcom.2019.05.322,HfNbTaTiZr,BCC,S,CR + A,,,,,460.0,,,,,,83.1,,,,,,,,,235
548,J69,10.1016/j.jallcom.2019.05.322,HfNbTaTiZr,BCC,S,CR + A,,,,,480.0,,,,,,82.7,,,,,,,,,235
549,J69,10.1016/j.jallcom.2019.05.322,HfNbTaTiZr,BCC,S,CR + A,,,,,500.0,,,,,,82.3,,,,,,,,,235
550,J69,10.1016/j.jallcom.2019.05.322,HfNbTaTiZr,BCC,S,CR + A,,,,,520.0,,,,,,81.9,,,,,,,,,235
551,J69,10.1016/j.jallcom.2019.05.322,HfNbTaTiZr,BCC,S,CR + A,,,,,540.0,,,,,,81.6,,,,,,,,,235
552,J69,10.1016/j.jallcom.2019.05.322,HfNbTaTiZr,BCC,S,CR + A,,,,,560.0,,,,,,81.3,,,,,,,,,235
553,J69,10.1016/j.jallcom.2019.05.322,HfNbTaTiZr,BCC,S,CR + A,,,,,580.0,,,,,,81,,,,,,,,,235
554,J69,10.1016/j.jallcom.2019.05.322,HfNbTaTiZr,BCC,S,CR + A,,,,,600.0,,,,,,80.7,,,,,,,,,235
555,J69,10.1016/j.jallcom.2019.05.322,HfNbTaTiZr,BCC,S,CR + A,,,,,620.0,,,,,,80.4,,,,,,,,,235
556,J69,10.1016/j.jallcom.2019.05.322,HfNbTaTiZr,BCC,S,CR + A,,,,,640.0,,,,,,80.2,,,,,,,,,235
557,J69,10.1016/j.jallcom.2019.05.322,HfNbTaTiZr,BCC,S,CR + A,,,,,660.0,,,,,,80,,,,,,,,,235
558,J69,10.1016/j.jallcom.2019.05.322,HfNbTaTiZr,BCC,S,CR + A,,,,,680.0,,,,,,79.8,,,,,,,,,235
559,J69,10.1016/j.jallcom.2019.05.322,HfNbTaTiZr,BCC,S,CR + A,,,,,700.0,,,,,,79.6,,,,,,,,,235
560,J69,10.1016/j.jallcom.2019.05.322,HfNbTaTiZr,BCC,S,CR + A,,,,,720.0,,,,,,79.3,,,,,,,,,235
561,J69,10.1016/j.jallcom.2019.05.322,HfNbTaTiZr,BCC,S,CR + A,,,,,740.0,,,,,,79,,,,,,,,,235
562,J69,10.1016/j.jallcom.2019.05.322,HfNbTaTiZr,BCC,S,CR + A,,,,,760.0,,,,,,78.7,,,,,,,,,235
563,J69,10.1016/j.jallcom.2019.05.322,HfNbTaTiZr,BCC,S,CR + A,,,,,780.0,,,,,,78.4,,,,,,,,,235
564,J69,10.1016/j.jallcom.2019.05.322,HfNbTaTiZr,BCC,S,CR + A,,,,,800.0,,,,,,78.1,,,,,,,,,235
565,J69,10.1016/j.jallcom.2019.05.322,HfNbTaTiZr,BCC,S,CR + A,,,,,820.0,,,,,,77.7,,,,,,,,,235
566,J69,10.1016/j.jallcom.2019.05.322,HfNbTaTiZr,BCC,S,CR + A,,,,,840.0,,,,,,77.4,,,,,,,,,235
567,J70,10.1016/j.msea.2019.138181,CoCrFeNiTi0.3,FCC,S,A + HR,90,,263,T,25.0,540,772,60,,,,,,,rearranged order of processing; fixed grain size,,,,,237
568,J70,10.1016/j.msea.2019.138181,CoCrFeNiTi0.3,FCC,S,HR + A,216,,185,,,,,,,,,,,,rearranged order of processing; fixed grain size,,,,,237
569,J70,10.1016/j.msea.2019.138181,Co0.5CrFeNi1.5Ti0.3,FCC,S,HR + A,263,,197,,,,,,,,,,,,added in T dependant data,,,,,237
570,J70,10.1016/j.msea.2019.138181,Co0.5CrFeNi1.5Ti0.3,FCC,S,A + HR,90,,308,T,25.0,586,875,46,,,,,,,added in T dependant data,,,,,237
571,J70,10.1016/j.msea.2019.138181,CrFeNi2Ti0.3,FCC,S,A + HR,90,,335,T,25.0,672,982,37,,,,,,,rearranged order of processing; fixed grain size,,,,,237
572,J70,10.1016/j.msea.2019.138181,CrFeNi2Ti0.3,FCC,S,HR + A,324,,204,,,,,,,,,,,,"added in T dependant data, rec actual comp instead of nominal",,,,,237
573,J72,10.1016/j.actamat.2019.06.006,NbTaTi,BCC,S,CR + A ,,,,C,20.0,573,,,,,,100.0,<5,,changed processing to CR + A; fixed yield strengths,,,,,238
574,J72,10.1016/j.actamat.2019.06.006,NbTaTi,BCC,S,CR + A ,,,,C,100.0,486,,,,,,100.0,<5,,changed processing to CR + A; fixed yield strengths,,,,,238
575,J72,10.1016/j.actamat.2019.06.006,NbTaTi,BCC,S,CR + A ,,,,C,200.0,378,,,,,,100.0,<5,,changed processing to CR + A; fixed yield strengths,,,,,238
576,J72,10.1016/j.actamat.2019.06.006,NbTaTi,BCC,S,CR + A ,,,,C,300.0,314,,,,,,100.0,<5,,changed processing to CR + A; fixed yield strengths,,,,,238
577,J72,10.1016/j.actamat.2019.06.006,NbTaTi,BCC,S,CR + A ,,,,C,400.0,232,,,,,,100.0,<5,,changed processing to CR + A; fixed yield strengths,,,,,238
578,J72,10.1016/j.actamat.2019.06.006,NbTaTi,BCC,S,CR + A ,,,,C,600.0,222,,,,,,100.0,<5,,changed processing to CR + A; fixed yield strengths,,,,,238
579,J72,10.1016/j.actamat.2019.06.006,NbTaTi,BCC,S,CR + A ,,,,C,800.0,210,,,,,,100.0,<5,,changed processing to CR + A; fixed yield strengths,,,,,238
580,J72,10.1016/j.actamat.2019.06.006,NbTaTi,BCC,S,CR + A ,,,,C,1000.0,160,,,,,,100.0,<5,,changed processing to CR + A; fixed yield strengths,,,,,238
581,J72,10.1016/j.actamat.2019.06.006,AlNbTaTi,BCC,S,AC,,,,C,20.0,1152,,,,,,180.0,<5,,fixed yield strengths,,,,,238
582,J72,10.1016/j.actamat.2019.06.006,AlNbTaTi,BCC,S,AC,,,,C,200.0,740,,,,,,180.0,<5,,fixed yield strengths,,,,,238
583,J72,10.1016/j.actamat.2019.06.006,AlNbTaTi,BCC,S,AC,,,,C,100.0,740,,,,,,180.0,<5,,fixed yield strengths,,,,,238
584,J72,10.1016/j.actamat.2019.06.006,MoNbTaTi,BCC,S,A,,,,C,20.0,1210,,,,,,80.0,<5,,fixed yield strengths,,,,,238
585,J72,10.1016/j.actamat.2019.06.006,MoNbTaTi,BCC,S,A,,,,C,60.0,1071,,,,,,80.0,<5,,fixed yield strengths,,,,,238
586,J72,10.1016/j.actamat.2019.06.006,MoNbTaTi,BCC,S,A,,,,C,100.0,1029,,,,,,80.0,<5,,fixed yield strengths,,,,,238
587,J72,10.1016/j.actamat.2019.06.006,MoNbTaTi,BCC,S,A,,,,C,200.0,868,,,,,,80.0,<5,,fixed yield strengths,,,,,238
588,J72,10.1016/j.actamat.2019.06.006,MoNbTaTi,BCC,S,A,,,,C,300.0,732,,,,,,80.0,<5,,fixed yield strengths,,,,,238
589,J72,10.1016/j.actamat.2019.06.006,MoNbTaTi,BCC,S,A,,,,C,400.0,685,,,,,,80.0,<5,,fixed yield strengths,,,,,238
590,J72,10.1016/j.actamat.2019.06.006,MoNbTaTi,BCC,S,A,,,,C,600.0,593,,,,,,80.0,<5,,fixed yield strengths,,,,,238
591,J72,10.1016/j.actamat.2019.06.006,MoNbTaTi,BCC,S,A,,,,C,800.0,564,,,,,,80.0,<5,,fixed yield strengths,,,,,238
592,J72,10.1016/j.actamat.2019.06.006,MoNbTaTi,BCC,S,A,,,,C,1000.0,539,,,,,,80.0,<5,,fixed yield strengths,,,,,238
593,J72,10.1016/j.actamat.2019.06.006,WNbTaTi,BCC,S,A,,,,C,20.0,1054,,,,,,90.0,<5,,fixed yield strengths,,,,,238
594,J72,10.1016/j.actamat.2019.06.006,WNbTaTi,BCC,S,A,,,,C,100.0,968,,,,,,90.0,<5,,fixed yield strengths,,,,,238
595,J72,10.1016/j.actamat.2019.06.006,WNbTaTi,BCC,S,A,,,,C,200.0,869,,,,,,90.0,<5,,fixed yield strengths,,,,,238
596,J72,10.1016/j.actamat.2019.06.006,WNbTaTi,BCC,S,A,,,,C,300.0,754,,,,,,90.0,<5,,fixed yield strengths,,,,,238
597,J72,10.1016/j.actamat.2019.06.006,WNbTaTi,BCC,S,A,,,,C,400.0,627,,,,,,90.0,<5,,fixed yield strengths,,,,,238
598,J72,10.1016/j.actamat.2019.06.006,WNbTaTi,BCC,S,A,,,,C,600.0,596,,,,,,90.0,<5,,fixed yield strengths,,,,,238
599,J72,10.1016/j.actamat.2019.06.006,WNbTaTi,BCC,S,A,,,,C,800.0,564,,,,,,90.0,<5,,fixed yield strengths,,,,,238
600,J72,10.1016/j.actamat.2019.06.006,WNbTaTi,BCC,S,A,,,,C,1000.0,459,,,,,,90.0,<5,,fixed yield strengths,,,,,238
601,J72,10.1016/j.actamat.2019.06.006,HfNbTaTi,BCC,S,A,,,,C,20.0,860,,,,,,160.0,<5,,fixed yield strengths,,,,,238
602,J72,10.1016/j.actamat.2019.06.006,HfNbTaTi,BCC,S,A,,,,C,20.0,834,,,,,,160.0,<5,,fixed yield strengths,,,,,238
603,J72,10.1016/j.actamat.2019.06.006,HfNbTaTi,BCC,S,A,,,,C,200.0,610,,,,,,160.0,<5,,fixed yield strengths,,,,,238
604,J72,10.1016/j.actamat.2019.06.006,HfNbTaTi,BCC,S,A,,,,C,600.0,473,,,,,,160.0,<5,,fixed yield strengths,,,,,238
605,J72,10.1016/j.actamat.2019.06.006,CrNbMoTi,BCC,S,A,,,,C,20.0,1630,,,,,,260.0,<5,,fixed yield strengths,,,,,238
606,J72,10.1016/j.actamat.2019.06.006,CrNbMoTi,BCC,S,A,,,,C,200.0,1268,,,,,,260.0,<5,,fixed yield strengths,,,,,238
607,J72,10.1016/j.actamat.2019.06.006,CrNbMoTi,BCC,S,A,,,,C,400.0,1115,,,,,,260.0,<5,,fixed yield strengths,,,,,238
608,J72,10.1016/j.actamat.2019.06.006,CrNbMoTi,BCC,S,A,,,,C,600.0,1062,,,,,,260.0,<5,,fixed yield strengths,,,,,238
609,J72,10.1016/j.actamat.2019.06.006,CrNbMoTi,BCC,S,A,,,,C,800.0,1058,,,,,,260.0,<5,,fixed yield strengths,,,,,238
610,J72,10.1016/j.actamat.2019.06.006,CrMoTaTi,BCC + Laves,M,A,,,,C,20.0,1795,,,,,,200.0,<5,,fixed yield strengths,,,,,238
611,J72,10.1016/j.actamat.2019.06.006,CrMoTaTi,BCC + Laves,M,A,,,,C,100.0,1506,,,,,,200.0,<5,,fixed yield strengths,,,,,238
612,J72,10.1016/j.actamat.2019.06.006,CrMoTaTi,BCC + Laves,M,A,,,,C,200.0,1266,,,,,,200.0,<5,,fixed yield strengths,,,,,238
613,J72,10.1016/j.actamat.2019.06.006,CrMoTaTi,BCC + Laves,M,A,,,,C,300.0,1183,,,,,,200.0,<5,,fixed yield strengths,,,,,238
614,J72,10.1016/j.actamat.2019.06.006,CrMoTaTi,BCC + Laves,M,A,,,,C,400.0,1175,,,,,,200.0,<5,,fixed yield strengths,,,,,238
615,J72,10.1016/j.actamat.2019.06.006,CrMoTaTi,BCC + Laves,M,A,,,,C,600.0,1162,,,,,,200.0,<5,,fixed yield strengths,,,,,238
616,J72,10.1016/j.actamat.2019.06.006,CrMoTaTi,BCC + Laves,M,A,,,,C,800.0,1162,,,,,,200.0,<5,,fixed yield strengths,,,,,238
617,J72,10.1016/j.actamat.2019.06.006,CrMoTaTi,BCC + Laves,M,A,,,,C,1000.0,1159,,,,,,200.0,<5,,fixed yield strengths,,,,,238
618,J74,10.1007/s40195-019-00921-3,Ti2ZrHf0.5V,BCC,S,AC,,,338.3,C,25.0,1160,,>50,,,,,,,,,,,,239
619,J74,10.1007/s40195-019-00921-3,Ti2ZrHf0.5V,BCC,S,AC,,,338.3,C,600.0,405,,>50,,,,,,,added high temperature data,,,,,239
620,J74,10.1007/s40195-019-00921-3,Ti2ZrHf0.5V,BCC,S,AC,,,338.3,C,800.0,85,,>50,,,,,,,added high temperature data,,,,,239
621,J74,10.1007/s40195-019-00921-3,Ti2ZrHf0.5VNb0.25,BCC,S,AC,,,332.4,C,25.0,1115,,>50,,,,,,,,,,,,239
622,J74,10.1007/s40195-019-00921-3,Ti2ZrHf0.5VNb0.5,BCC,S,AC,,,322.5,C,25.0,1065,,>50,,,,,,,,,,,,239
623,J74,10.1007/s40195-019-00921-3,Ti2ZrHf0.5VNb0.5,BCC,S,AC,,,322.5,C,600.0,718,,>50,,,,,,,added high temperature data,,,,,239
624,J74,10.1007/s40195-019-00921-3,Ti2ZrHf0.5VNb0.5,BCC,S,AC,,,322.5,C,800.0,135,,>50,,,,,,,added high temperature data,,,,,239
625,J74,10.1007/s40195-019-00921-3,Ti2ZrHf0.5VNb0.75,BCC,S,AC,,,318.9,C,25.0,1025,,>50,,,,,,,,,,,,239
626,J74,10.1007/s40195-019-00921-3,Ti2ZrHf0.5VNb,BCC,S,AC,,,310.4,C,25.0,980,,>50,,,,,,,,,,,,239
627,J74,10.1007/s40195-019-00921-3,Ti2ZrHf0.5VNb,BCC,S,AC,,,310.4,C,600.0,859,,>50,,,,,,,added high temperature data,,,,,239