,REFERENCE: tag,REFERENCE: doi,FORMULA,PROPERTY: Type of phases,PROPERTY: Single/Multiphase,PROPERTY: synthesis method,PROPERTY: grain size ($\mu$m),PROPERTY: ROM Density (g/cm$^3$),PROPERTY: HV,PROPERTY: Type of test,PROPERTY: Test temperature ($^\circ$C),PROPERTY: YS (MPa),PROPERTY: UTS (MPa),PROPERTY: Elongation (%),PROPERTY: Elongation plastic (%),PROPERTY: Young modulus (GPa),PROPERTY: O content (wppm),PROPERTY: N content (wppm),PROPERTY: C content (wppm),REFERENCE: comment,"Internal Reference # (J4, J90)","J4, J90 Original DOI",PROPERTY: Exp. Density (g/cm$^3$),Unnamed: 22,IDENTIFIER: Reference ID
183,37,10.2320/matertrans.47.1395,Al0.5CoCrCuFeNiTi1.4,FCC+BCC+B2 +sigma + other,M,AC,,6.8,664,,25.0,,,,,,,,,,,,,,24
184,37,10.2320/matertrans.47.1395,Al0.5CoCrCuFeNiTi1.6,FCC+BCC+B2 +other,M,AC,,6.7,657,,25.0,,,,,,,,,,,,,,24
185,37,10.2320/matertrans.47.1395,Al0.5CoCrCuFeNiTi1.8,FCC+BCC+B2 +other,M,AC,,6.6,667,,25.0,,,,,,,,,,,,,,24
186,37,10.2320/matertrans.47.1395,Al0.5CoCrCuFeNiTi2,FCC+BCC+B2 +other,M,AC,,6.5,696,,25.0,,,,,,,,,,,,,,24
187,38,10.1007/s11661-006-0081-3,Al0.5CoCrCuFeNi,FCC,S,AC,,7.6,215,,25.0,,,,,193.0,,,,,,,,,25
188,38,10.1007/s11661-006-0081-3,Al0.5CoCrCuFeNiV0.2,FCC,S,AC,,7.6,204,,25.0,,,,,191.0,,,,,,,,,25
189,38,10.1007/s11661-006-0081-3,Al0.5CoCrCuFeNiV0.4,FCC+BCC,M,AC,,7.5,231,,25.0,,,,,189.0,,,,,,,,,25
190,38,10.1007/s11661-006-0081-3,Al0.5CoCrCuFeNiV0.6,FCC+BCC+sigma,M,AC,,7.5,328,,25.0,,,,,,,,,,,,,,25
191,38,10.1007/s11661-006-0081-3,Al0.5CoCrCuFeNiV0.8,FCC+BCC+sigma,M,AC,,7.4,447,,25.0,,,,,,,,,,,,,,25
192,38,10.1007/s11661-006-0081-3,Al0.5CoCrCuFeNiV1.0,FCC+BCC+sigma,M,AC,,7.4,639,,25.0,,,,,,,,,,,,,,25
193,38,10.1007/s11661-006-0081-3,Al0.5CoCrCuFeNiV1.2,BCC,S,AC,,7.3,579,,25.0,,,,,182.0,,,,,,,,,25
194,38,10.1007/s11661-006-0081-3,Al0.5CoCrCuFeNiV1.4,BCC,S,AC,,7.3,577,,25.0,,,,,180.0,,,,,,,,,25
195,38,10.1007/s11661-006-0081-3,Al0.5CoCrCuFeNiV1.6,BCC,S,AC,,7.2,594,,25.0,,,,,179.0,,,,,,,,,25
196,38,10.1007/s11661-006-0081-3,Al0.5CoCrCuFeNiV1.8,BCC,S,AC,,7.2,597,,25.0,,,,,177.0,,,,,,,,,25
197,38,10.1007/s11661-006-0081-3,Al0.5CoCrCuFeNiV2.0,BCC,S,AC,,7.2,587,,25.0,,,,,176.0,,,,,,,,,25
198,39,10.1016/j.msea.2012.07.003,AlCoCrCuFeNi,FCC+BCC,M,AC,,7.1,472,,25.0,,,,,184.0,,,,,,,,,26
199,39,10.1016/j.msea.2012.07.003,AlCoCuFeNdNi,Im,M,AC,,7.4,578,,25.0,,,,,,,,,changed Nb to Nd,,,,,26
200,39,10.1016/j.msea.2012.07.003,AlCoCuFeNi,FCC+BCC,M,AC,,7.0,536,,25.0,,,,,164.0,,,,,,,,,26
201,39,10.1016/j.msea.2012.07.003,AlCoCuFeNiSi,FCC+BCC,M,AC,,5.9,682,,25.0,,,,,145.0,,,,,,,,,26
202,39,10.1016/j.msea.2012.07.003,AlCoCuFeNiTi,FCC+BCC,M,AC,,6.5,626,,25.0,,,,,156.0,,,,,,,,,26
203,39,10.1016/j.msea.2012.07.003,AlCoCuFeNiZr,FCC+BCC+Im,M,AC,,6.9,472,,25.0,,,,,,,,,,,,,,26
204,40,10.1016/j.msea.2008.08.025,AlCoCrCuFeMnNi,FCC+BCC+Im,M,AC,,7.1,,C,25.0,1005.0,,15,,,,,,total elongation is reported,,,,,28
205,40,10.1016/j.msea.2008.08.025,AlCoCrCuFeNi,FCC+BCC,M,AC,,7.1,,C,25.0,1303.0,,24,,183.0,,,,,,,,,28
206,40,10.1016/j.msea.2008.08.025,AlCoCrCuFeNiTi,FCC+BCC + BCC,M,AC,,6.6,,C,25.0,1234.0,,9,,174.0,,,,,,,,,28
207,40,10.1016/j.msea.2008.08.025,AlCoCrCuFeNiV,FCC+BCC,M,AC,,6.9,,C,25.0,1469.0,,16,,175.0,,,,,,,,,28
208,42,10.1016/j.matdes.2009.09.016,AlCoCrCuNiTi,BCC,S,,,6.4,,C,25.0,,1495.0,,8.0,36.0,,,,plastic elongation is reported; no stress strain provided,,,,,29
209,42,10.1016/j.matdes.2009.09.016,AlCoCrCuNiTiY,Im,M,AC,,5.8,,C,25.0,,1192.0,,4.0,37.0,,,,,,,,,29
210,42,10.1016/j.matdes.2009.09.016,AlCoCrCuNiTiY0.5,Im,M,AC,,6.1,,C,25.0,,1025.0,,3.0,36.0,,,,,,,,,29
211,42,10.1016/j.matdes.2009.09.016,AlCoCrCuNiTiY0.8,Im,M,AC,,5.9,,C,25.0,,1325.0,,5.0,38.0,,,,,,,,,29
212,43,10.1016/j.msea.2012.03.080,CoCuFeNi,FCC,S,AC,,8.6,,T,25.0,,480.0,,15.0,188.0,,,,I think this is plastic elongation ,,,,,30
213,43,10.1016/j.msea.2012.03.080,CoCuFeNiSn0.02,FCC,S,AC,,8.6,,T,25.0,,548.0,,17.0,187.0,,,,,,,,,30
214,43,10.1016/j.msea.2012.03.080,CoCuFeNiSn0.04,FCC+Im,M,AC,,8.6,,T,25.0,,594.0,,18.0,,,,,,,,,,30
215,43,10.1016/j.msea.2012.03.080,CoCuFeNiSn0.05,FCC+Im,M,AC,,8.6,,T,25.0,,615.0,,20.0,,,,,,,,,,30
216,43,10.1016/j.msea.2012.03.080,CoCuFeNiSn0.07,FCC+Im,M,AC,,8.6,,T,25.0,,632.0,,19.0,,,,,,,,,,30
217,43,10.1016/j.msea.2012.03.080,CoCuFeNiSn0.1,FCC+Im,M,AC,,8.6,,T,25.0,,602.0,,5.0,,,,,,,,,,30
218,43,10.1016/j.msea.2012.03.080,CoCuFeNiSn0.2,FCC+Im,M,AC,,8.5,,T,25.0,,261.0,,2.0,,,,,,,,,,30
219,43,10.1016/j.msea.2012.03.080,CoCuFeNiSn0.5,FCC+Im,M,AC,,8.3,,,25.0,,,,,,,,,,,,,,30
220,44,10.1016/j.matdes.2012.08.019,CoCuFeMnNi,FCC,S,AC,,8.4,208,T,25.0,,478.0,,14.0,190.0,,,,i think this is plastic,,,,,31
221,44,10.1016/j.matdes.2012.08.019,CoCuFeMnNiSn0.03,FCC,S,AC,,8.4,192,T,25.0,,465.0,,18.0,,,,,,,,,,31
222,44,10.1016/j.matdes.2012.08.019,CoCuFeMnNiSn0.05,FCC+Im,M,AC,,8.4,205,T,25.0,,475.0,,12.0,,,,,,,,,,31
223,44,10.1016/j.matdes.2012.08.019,CoCuFeMnNiSn0.08,FCC+Im,M,AC,,8.3,219,T,25.0,,425.0,,7.0,,,,,,,,,,31
224,44,10.1016/j.matdes.2012.08.019,CoCuFeMnNiSn0.10,FCC+Im,M,AC,,8.3,253,T,25.0,,470.0,,6.0,,,,,,,,,,31
225,44,10.1016/j.matdes.2012.08.019,CoCuFeMnNiSn0.20,FCC+Im,M,AC,,8.3,319,T,25.0,,368.0,,2.0,,,,,,,,,,31
226,45,10.1016/j.msea.2011.11.063,AlCrCuFeNi,FCC+BCC,M,A,,6.8,495,,25.0,,,,,178.0,,,,,,,,,32
227,45,10.1016/j.msea.2011.11.063,AlCrCuFeNi0.6,FCC+BCC,M,A,,6.6,496,,25.0,,,,,176.0,,,,,,,,,32
228,45,10.1016/j.msea.2011.11.063,AlCrCuFeNi0.8,FCC+BCC,M,A,,6.7,486,,25.0,,,,,177.0,,,,,,,,,32
229,45,10.1016/j.msea.2011.11.063,AlCrCuFeNi1.2,FCC+BCC,M,A,,6.8,407,,25.0,,,,,179.0,,,,,,,,,32
230,45,10.1016/j.msea.2011.11.063,AlCrCuFeNi1.4,FCC+BCC,M,A,,6.9,367,,25.0,,,,,180.0,,,,,,,,,32
231,45,10.1016/j.msea.2011.11.063,CoCrCuFeNi,FCC,S,,,8.3,286,C,25.0,230.0,888.0,51,,56.0,,,,total elongation ,,,,,32
232,46,10.1063/1.3587228,Al0.2CrCuFeNi2,FCC,S,,,8.0,,,25.0,,,,,199.0,,,,,,,,,33
233,46,10.1063/1.3587228,Al0.4CrCuFeNi2,FCC,S,,,7.8,,,25.0,,,,,194.0,,,,,,,,,33
234,46,10.1063/1.3587228,Al0.6CrCuFeNi2,FCC,S,,,7.5,,,25.0,,,,,190.0,,,,,,,,,33
235,46,10.1063/1.3587228,Al0.8CrCuFeNi2,FCC,S,,,7.3,,,25.0,,,,,186.0,,,,,,,,,33
236,46,10.1063/1.3587228,Al1.2CrCuFeNi2,FCC+BCC,M,,,6.9,,,25.0,,,,,178.0,,,,,,,,,33
237,46,10.1063/1.3587228,AlCrCuFeNi2,FCC+BCC,M,,,7.1,,,25.0,,,,,182.0,,,,,,,,,33
238,47,10.1016/j.jallcom.2011.02.108,AlCrCuFeNiTi,BCC+ BCC +Laves (C14),M,A,,6.3,,C,25.0,,1219.0,,,,,,,,,,,,34
239,48,10.1016/j.apsusc.2015.07.207,Al1.125CuFe0.75NiTi1.125,FCC,S,AC,,5.9,516,C,25.0,980.0,1326.0,,7.0,145.0,,,,plastic strain; also unrecorded high temperature data...,,,,,35
240,48,10.1016/j.apsusc.2015.07.207,Al22.5Cu20Fe15Ni20Ti22.5,FCC,S,AC,,5.9,516,C,25.0,980.0,1326.0,,7.0,145.0,,,,,,,,,35
241,48,10.1016/j.apsusc.2015.07.207,AlCuFeNiTi,FCC,S,AC,,6.1,516,C,25.0,1074.0,1617.0,,8.0,146.0,,,,,,,,,35
242,48,10.1016/j.apsusc.2015.07.207,AlCuNiTi,FCC,S,AC,,5.7,537,C,25.0,300.0,536.0,,0.85,108.0,,,,,,,,,35
243,49,10.1007/s11837-015-1402-z,Al8Cu0.5Li0.5Mg0.5Zn0.5,FCC+Im,M,AC,,2.9,,C,25.0,488.0,879.0,17,,,,,,total elongation I think,,,,,36
244,49,10.1007/s11837-015-1402-z,Al8Li0.5Mg0.5Sn0.5Zn0.5,FCC+Im,M,AC,,3.0,,C,25.0,415.0,836.0,16,,,,,,,,,,,36
245,49,10.1007/s11837-015-1402-z,AlCu0.2Li0.5MgZn0.5,Im,M,AC,,2.7,,,25.0,,,,,,,,,,,,,,36
246,49,10.1007/s11837-015-1402-z,AlCu0.5Li0.5MgSn0.2,Im,M,AC,,3.0,,,25.0,,,,,,,,,,,,,,36
247,49,10.1007/s11837-015-1402-z,AlLi0.5MgSn0.2Zn0.5,FCC+Im,M,AC,,2.9,,C,25.0,546.0,546.0,,,,,,,,,,,,36
248,49,10.1007/s11837-015-1402-z,AlLiMgSnZn,FCC+HCP+Im,M,AC,,3.9,,C,25.0,600.0,615.0,1,,,,,,,,,,,36
249,50,10.1080/21663831.2014.985855,AlLiMg0.5ScTi1.5,FCC+HCP,M,,,2.7,591,,25.0,,,,,69.0,,,,,,,,,38
250,52,10.1007/s11837-014-1066-0,Al0.3NbTa0.8Ti1.4V0.2Zr1.3,BCC,S,HIP+A,180,7.7,500,C,25.0,1965.0,2061.0,5,,110.0,,,,I think this is total elongation ,,,,,39
251,52,10.1007/s11837-014-1066-0,Al0.3NbTa0.8Ti1.4V0.2Zr1.3,BCC,S,HIP+A,180,7.8,,C,25.0,1965.0,2061.0,5,,,,,,A5,,,,,39
252,52,10.1007/s11837-014-1066-0,Al0.3NbTa0.8Ti1.4V0.2Zr1.3,BCC,S,HIP+A,180,7.8,,C,800.0,678.0,693.0,>50,,,,,,A5,,,,,39
253,52,10.1007/s11837-014-1066-0,Al0.3NbTa0.8Ti1.4V0.2Zr1.3,BCC,S,HIP+A,180,7.8,,C,1000.0,166.0,189.0,>50,,,,,,A5,,,,,39
254,52,10.1007/s11837-014-1066-0,Al0.3NbTaTi1.4Zr1.3,BCC,S,HIP+A,200,8.1,490,C,25.0,1965.0,2054.0,5,,113.0,,,,,,,,,39
255,52,10.1007/s11837-014-1066-0,Al0.3NbTaTi1.4Zr1.3,BCC,S,HIP+A,200,8.2,,C,25.0,1965.0,2054.0,5,,,,,,A4,,,,,39
256,52,10.1007/s11837-014-1066-0,Al0.3NbTaTi1.4Zr1.3,BCC,S,HIP+A,200,8.2,,C,800.0,362.0,397.0,>50,,,,,,A4,,,,,39
257,52,10.1007/s11837-014-1066-0,Al0.3NbTaTi1.4Zr1.3,BCC,S,HIP+A,200,8.2,,C,1000.0,236.0,247.0,>50,,,,,,A4,,,,,39
258,52,10.1007/s11837-014-1066-0,Al0.4Hf0.6NbTaTiZr,BCC,S,HIP+A,140,9.1,500,C,25.0,1841.0,2269.0,10,,110.0,,,,,,,,,39
259,52,10.1007/s11837-014-1066-0,Al0.4Hf0.6NbTaTiZr,BCC,S,HIP+A,140,9.0,,C,25.0,1841.0,2269.0,10,,,,,,A3,,,,,39
260,52,10.1007/s11837-014-1066-0,Al0.4Hf0.6NbTaTiZr,BCC,S,HIP+A,140,9.0,,C,800.0,796.0,834.0,>50,,,,,,A3,,,,,39
261,52,10.1007/s11837-014-1066-0,Al0.4Hf0.6NbTaTiZr,BCC,S,HIP+A,140,9.0,,C,1000.0,298.0,455.0,>50,,,,,,A3,,,,,39
262,52,10.1007/s11837-014-1066-0,Al0.5NbTa0.8Ti1.5V0.2Zr,BCC,S,HIP+A,100,7.6,530,C,25.0,2035.0,2105.0,5,,111.0,,,,,,,,,39
263,52,10.1007/s11837-014-1066-0,Al0.5NbTa0.8Ti1.5V0.2Zr,BCC,S,HIP+A,100,7.4,,C,25.0,2035.0,2105.0,4.5,,,,,,A6,,,,,39
264,52,10.1007/s11837-014-1066-0,Al0.5NbTa0.8Ti1.5V0.2Zr,BCC,S,HIP+A,100,7.4,,C,800.0,796.0,851.0,>50,,,,,,A6,,,,,39
265,52,10.1007/s11837-014-1066-0,Al0.5NbTa0.8Ti1.5V0.2Zr,BCC,S,HIP+A,100,7.4,,C,1000.0,220.0,225.0,>50,,,,,,A6,,,,,39
266,52,10.1007/s11837-014-1066-0,AlMo0.5NbTa0.5TiZr,BCC+B2,M,HIP+A,75,7.1,591,C,25.0,2000.0,2368.0,10,,123.0,,,,,,,,,39
267,52,10.1007/s11837-014-1066-0,AlMo0.5NbTa0.5TiZr,BCC+B2,M,HIP+A,75,7.4,,C,25.0,2000.0,2368.0,10,,,,,,A1,,,,,39
268,52,10.1007/s11837-014-1066-0,AlMo0.5NbTa0.5TiZr,BCC+B2,M,HIP+A,75,7.4,,C,800.0,1597.0,1810.0,11,,,,,,A1,,,,,39
269,52,10.1007/s11837-014-1066-0,AlMo0.5NbTa0.5TiZr,BCC+B2,M,HIP+A,75,7.4,,C,1000.0,745.0,772.0,>50,,,,,,A1,,,,,39
270,52,10.1007/s11837-014-1066-0,AlMo0.5NbTa0.5TiZr,BCC+B2,M,HIP+A,75,7.4,,C,1200.0,250.0,,>50,,,,,,A1,,,,,39
271,52,10.1007/s11837-014-1066-0,AlNb1.5Ta0.5Ti1.5Zr0.5,BCC,S,HIP+A,2000,6.8,408,C,25.0,1280.0,1367.0,4,,106.0,,,,,,,,,39
272,52,10.1007/s11837-014-1066-0,AlNb1.5Ta0.5Ti1.5Zr0.5,BCC,S,HIP+A,2000,6.9,,C,25.0,1280.0,1367.0,3.5,,,,,,A2,,,,,39
273,52,10.1007/s11837-014-1066-0,AlNb1.5Ta0.5Ti1.5Zr0.5,BCC,S,HIP+A,2000,6.9,,C,800.0,728.0,1000.0,>12,,,,,,A2,,,,,39
274,52,10.1007/s11837-014-1066-0,AlNb1.5Ta0.5Ti1.5Zr0.5,BCC,S,HIP+A,2000,6.9,,C,1000.0,403.0,415.0,>50,,,,,,A2,,,,,39
275,53,10.1016/j.jallcom.2014.11.064,Al0.3HfNbTaTiZr,BCC,S,AC,105,9.5,353,C,25.0,1188.0,,50,,63.0,,,,total elongation ,,,,,40
276,53,10.1016/j.jallcom.2014.11.064,Al0.5HfNbTaTiZr,BCC,S,AC,86,9.3,396,C,25.0,1302.0,,46,,97.0,,,,,,,,,40
277,53,10.1016/j.jallcom.2014.11.064,Al0.75HfNbTaTiZr,BCC,S,AC,89,9.3,427,C,25.0,1415.0,2050.0,30,,102.0,,,,,,,,,40
278,53,10.1016/j.jallcom.2014.11.064,AlHfNbTaTiZr,BCC+Im,M,AC,92,8.6,441,C,25.0,1489.0,1900.0,21,,103.0,,,,,,,,,40
279,53,10.1016/j.jallcom.2014.11.064,HfNbTaTiZr,BCC,S,AC,120,9.7,295,C,25.0,1073.0,,50,,55.0,,,,,,,,,40
280,54,10.3390/e16020870,Al0.25MoNbTiV,BCC,S,AC,,7.1,460,C,25.0,1250.0,1500.0,13,,164.0,,,,total elongation ,,,,,41
281,54,10.3390/e16020870,Al0.5MoNbTiV,BCC,S,AC,,6.8,487,C,25.0,1625.0,1800.0,11,,158.0,,,,,,,,,41
282,54,10.3390/e16020870,Al0.75MoNbTiV,BCC,S,AC,,6.6,517,C,25.0,1260.0,1300.0,8,,154.0,,,,,,,,,41
283,54,10.3390/e16020870,AlMoNbTiV,BCC,S,AC,,6.4,537,C,25.0,1375.0,1400.0,3,,150.0,,,,,,,,,41
284,54,10.3390/e16020870,MoNbTiV,BCC,S,AC,,7.3,441,C,25.0,1200.0,2050.0,26,,170.0,,,,,,,,,41
285,55,10.1016/j.proeng.2012.03.043,Al0.25NbTaTiV,BCC,S,AC,,8.8,,C,25.0,1330.0,,,,92.0,,,,,,,,,42
286,55,10.1016/j.proeng.2012.03.043,Al0.5NbTaTiV,BCC,S,AC,,8.5,,C,25.0,1014.0,,,,97.0,,,,,,,,,42
287,55,10.1016/j.proeng.2012.03.043,AlNbTaTiV,BCC,S,AC,,7.9,,C,25.0,993.0,,,,101.0,,,,,,,,,42
288,55,10.1016/j.proeng.2012.03.043,NbTaTiV,BCC,S,AC,,9.2,,C,25.0,1092.0,,,,106.0,,,,,,,,,42
289,56,10.1016/j.matlet.2014.11.162,AlNbTiV,BCC,S,A,300-400,5.5,448,C,25.0,1020.0,1318.0,,5.0,105.0,,,,plastic elongation ,,,,,43
290,56,10.1016/j.matlet.2014.11.162,AlNbTiV,BCC,S,A,,5.6,,C,25.0,1020.0,,,5.0,,,,,,,,,,43
291,56,10.1016/j.matlet.2014.11.162,AlNbTiV,BCC,S,A,,5.6,,C,600.0,810.0,1050.0,,12.0,,,,,,,,,,43
292,56,10.1016/j.matlet.2014.11.162,AlNbTiV,BCC,S,A,,5.6,,C,800.0,685.0,,,50.0,,,,,,,,,,43
293,56,10.1016/j.matlet.2014.11.162,AlNbTiV,BCC,S,A,,5.6,,C,1000.0,158.0,,,50.0,,,,,,,,,,43
294,58,10.1016/j.msea.2011.09.033,CrMo0.5NbTa0.5TiZr,BCC+BCC+Laves (C15),M,HIP+A,,8.0,540,C,25.0,1595.0,2046.0,5,,,,,,total elongation ,,,,,44
295,58,10.1016/j.msea.2011.09.033,CrMo0.5NbTa0.5TiZr,BCC+BCC+Laves (C15),M,HIP+A,,8.2,,C,25.0,1595.0,2046.0,5,,,,,,,,,,,44
296,58,10.1016/j.msea.2011.09.033,CrMo0.5NbTa0.5TiZr,BCC+BCC+Laves (C15),M,HIP+A,,8.2,,C,800.0,983.0,1100.0,5.5,,,,,,,,,,,44
297,58,10.1016/j.msea.2011.09.033,CrMo0.5NbTa0.5TiZr,BCC+BCC+Laves (C15),M,HIP+A,,8.2,,C,1000.0,546.0,630.0,50,,,,,,,,,,,44
298,58,10.1016/j.msea.2011.09.033,CrMo0.5NbTa0.5TiZr,BCC+BCC+Laves (C15),M,HIP+A,,8.2,,C,1200.0,170.0,190.0,50,,,,,,,,,,,44
299,59,10.1016/j.msea.2012.12.018,CrNbTiVZr,BCC+laves,M,HIP+A,,6.6,482,C,25.0,1298.0,,3,,,,,,total elongation ,,,,,45
300,59,10.1016/j.msea.2012.12.018,CrNbTiVZr,BCC+laves,M,HIP+A,,6.6,,C,25.0,1298.0,,3,,,,,,,,,,,45
301,59,10.1016/j.msea.2012.12.018,CrNbTiVZr,BCC+laves,M,HIP+A,,6.6,,C,600.0,1230.0,,10,,,,,,,,,,,45
302,59,10.1016/j.msea.2012.12.018,CrNbTiVZr,BCC+laves,M,HIP+A,,6.6,,C,800.0,615.0,,>50,,,,,,,,,,,45
303,59,10.1016/j.msea.2012.12.018,CrNbTiVZr,BCC+laves,M,HIP+A,,6.6,,C,1000.0,259.0,,>50,,,,,,,,,,,45
304,59,10.1016/j.msea.2012.12.018,CrNbTiZr,BCC+laves,M,HIP+A,,6.6,418,C,25.0,1260.0,,6,,,,,,,,,,,45
305,59,10.1016/j.msea.2012.12.018,CrNbTiZr,BCC+laves,M,HIP+A,,6.7,,C,25.0,1260.0,,6,,,,,,,,,,,45
306,59,10.1016/j.msea.2012.12.018,CrNbTiZr,BCC+laves,M,HIP+A,,6.7,,C,600.0,1035.0,,>50,,,,,,,,,,,45
307,59,10.1016/j.msea.2012.12.018,CrNbTiZr,BCC+laves,M,HIP+A,,6.7,,C,800.0,300.0,,>50,,,,,,,,,,,45
308,59,10.1016/j.msea.2012.12.018,CrNbTiZr,BCC+laves,M,HIP+A,,6.7,,C,1000.0,115.0,,>50,,,,,,,,,,,45
309,59,10.1016/j.msea.2012.12.018,NbTiV2Zr,BCC,S,HIP+A,500-600,6.4,304,C,25.0,918.0,,> 50,,109.0,,,,,,,,,45
310,59,10.1016/j.msea.2012.12.018,NbTiV2Zr,BCC,S,HIP+A,,6.3,,C,25.0,918.0,,50,,,,,,,,,,,45
311,59,10.1016/j.msea.2012.12.018,NbTiV2Zr,BCC,S,HIP+A,,6.3,,C,600.0,571.0,,50,,,,,,,,,,,45
312,59,10.1016/j.msea.2012.12.018,NbTiV2Zr,BCC,S,HIP+A,,6.3,,C,800.0,240.0,,50,,,,,,,,,,,45
313,59,10.1016/j.msea.2012.12.018,NbTiV2Zr,BCC,S,HIP+A,,6.3,,C,1000.0,72.0,,50,,,,,,,,,,,45
314,59,10.1016/j.msea.2012.12.018,NbTiVZr,BCC,S,HIP+A,500-600,6.5,335,C,25.0,1105.0,,> 50,,104.0,,,,,,,,,45
315,59,10.1016/j.msea.2012.12.018,NbTiVZr,BCC,S,HIP+A,,6.5,,C,25.0,1105.0,,50,,,,,,,,,,,45
316,59,10.1016/j.msea.2012.12.018,NbTiVZr,BCC,S,HIP+A,,6.5,,C,600.0,834.0,,50,,,,,,,,,,,45
317,59,10.1016/j.msea.2012.12.018,NbTiVZr,BCC,S,HIP+A,,6.5,,C,800.0,187.0,,50,,,,,,,,,,,45
318,59,10.1016/j.msea.2012.12.018,NbTiVZr,BCC,S,HIP+A,,6.5,,C,1000.0,58.0,,50,,,,,,,,,,,45
319,61,10.1016/j.intermet.2015.09.011,Hf0.5Mo0.5NbTiZr,BCC,S,AC,,7.9,,C,25.0,1176.0,1538.0,,,123.1,,,,,,,,,47
320,61,10.1016/j.intermet.2015.09.011,Hf0.5Mo0.5NbTiZrC0.1,BCC+HfC,M,AC,,7.8,,C,25.0,1183.0,2139.0,38,,,,,,total elongation ,,,,,47
321,61,10.1016/j.intermet.2015.09.011,Hf0.5Mo0.5NbTiZrC0.3,BCC+HfC,M,AC,,7.7,,C,25.0,1201.0,1965.0,33,,,,,,,,,,,47
322,62,10.1016/j. matlet.2016.03.133,HfMo0.25NbTaTiZr,BCC,S,AC,,9.9,395,C,25.0,1112.0,,50,,96.0,,,,total elongation ,,,,,48
323,62,10.1016/j. matlet.2016.03.133,HfMo0.5NbTaTiZr,BCC,S,AC,,10.0,480,C,25.0,1317.0,,50,,102.0,,,,,,,,,48
324,62,10.1016/j. matlet.2016.03.133,HfMo0.75NbTaTiZr,BCC,S,AC,,10.0,492,C,25.0,1373.0,,50,,109.0,,,,,,,,,48
325,62,10.1016/j. matlet.2016.03.133,HfMoNbTaTiZr,BCC,S,AC,,10.0,505,C,25.0,1512.0,1800.0,12,,115.0,,,,,,,,,48
326,62,10.1016/j. matlet.2016.03.133,HfNbTaTiZr,BCC,S,AC,,9.9,335,C,25.0,1015.0,,50,,85.0,,,,,,,,,48
327,63,10.1016/j.intermet.2015.03.013,HfMoNbTaTiZr,BCC,S,AC,,10.0,505,C,25.0,1512.0,,12,,147.0,,,,total elongation ,,,,,49
328,63,10.1016/j.intermet.2015.03.013,HfMoNbTaTiZr,BCC,S,AC,,10.0,,C,800.0,1007.0,,23,,,,,,,,,,,49
329,63,10.1016/j.intermet.2015.03.013,HfMoNbTaTiZr,BCC,S,AC,,10.0,,C,1000.0,814.0,,30,,,,,,,,,,,49
330,63,10.1016/j.intermet.2015.03.013,HfMoNbTaTiZr,BCC,S,AC,,10.0,,C,1200.0,556.0,,30,,,,,,,,,,,49
331,63,10.1016/j.intermet.2015.03.013,HfMoTaTiZr,BCC,S,AC,,10.2,542,C,25.0,1600.0,1743.0,4,,155.0,,,,,,,,,49
332,63,10.1016/j.intermet.2015.03.013,HfMoTaTiZr,BCC,S,AC,,10.2,,C,800.0,1045.0,1446.0,19,,,,,,,,,,,49
333,63,10.1016/j.intermet.2015.03.013,HfMoTaTiZr,BCC,S,AC,,10.2,,C,1000.0,855.0,,30,,,,,,,,,,,49
334,63,10.1016/j.intermet.2015.03.013,HfMoTaTiZr,BCC,S,AC,,10.2,,C,1200.0,404.0,,30,,,,,,,,,,,49
335,64,10.1016/j.matdes.2015.05.019,HfMoNbTiZr,BCC,S,A,,8.7,,C,25.0,1575.0,1640.0,9,,,,,,total elongation ,,,,,50
336,64,10.1016/j.matdes.2015.05.019,HfMoNbTiZr,BCC,S,A,,8.7,,C,800.0,825.0,1095.0,50,,,,,,,,,,,50
337,64,10.1016/j.matdes.2015.05.019,HfMoNbTiZr,BCC,S,A,,8.7,,C,1000.0,635.0,654.0,50,,,,,,,,,,,50
338,64,10.1016/j.matdes.2015.05.019,HfMoNbTiZr,BCC,S,A,,8.7,,C,1200.0,187.0,194.0,50,,,,,,,,,,,50
339,64,10.1016/j.matdes.2015.05.019,HfMoNbZrTi,BCC,S,AC,,8.7,,C,25.0,1803.0,1719.0,10,,139.0,,,,,,,,,50
340,65,10.1016/j.matlet.2016.03.092,HfNbSi0.5TiV,BCC+silicide,M,AC,,8.6,,C,800.0,875.0,,50,,,,,,cold crucible lev melting,,,,,51
341,65,10.1016/j.matlet.2016.03.092,HfNbSi0.5TiV,BCC+silicide,M,AC,,8.6,,C,1000.0,240.0,,50,,,,,,cold crucible lev melting,,,,,51
342,65,10.1016/j.matlet.2016.03.092,HfNbSi0.5TiV,BCC+silicide,M,AC,,8.6,490,C,25.0,1399.0,1608.0,11,,,,,,cold crucible leviation melting = AC,,,,,51
343,68,10.1063/1.4966659,Hf0.5Nb0.5Ta0.5Ti1.5Zr,BCC,S,AC,,8.1,301,T,25.0,903.0,990.0,19,,107.0,,,,total elongation ,,,,,52
344,69,10.1007/s10853-012-6260-2,HfNbTaTiZr,BCC,S,HIP+A,,9.9,,C,25.0,929.0,,50,,,,,,,,,,,53
345,69,10.1007/s10853-012-6260-2,HfNbTaTiZr,BCC,S,HIP+A,,9.9,,C,400.0,790.0,,50,,,,,,,,,,,53
346,69,10.1007/s10853-012-6260-2,HfNbTaTiZr,BCC,S,HIP+A,,9.9,,C,600.0,675.0,,50,,,,,,,,,,,53
347,69,10.1007/s10853-012-6260-2,HfNbTaTiZr,BCC,S,HIP+A,,9.9,,C,800.0,535.0,,50,,,,,,,,,,,53
348,69,10.1007/s10853-012-6260-2,HfNbTaTiZr,BCC,S,HIP+A,,9.9,,C,1000.0,295.0,,50,,,,,,,,,,,53
349,69,10.1007/s10853-012-6260-2,HfNbTaTiZr,BCC,S,HIP+A,,9.9,,C,1200.0,92.0,,50,,,,,,,,,,,53
350,71,10.1016/j.matlet.2014.05.134,HfNbTiZr,BCC,S,AC,,8.4,,T,25.0,879.0,969.0,,14.9,92.0,,,,plastic strain ,,,,,55
351,72,10.3390/e18050189,MoNbTaV,BCC,S,A,200,10.7,504,C,25.0,1525.0,2400.0,21,,187.0,,,,total elongation ,,,,,56
352,73,10.1016/j.intermet.2011.01.004,MoNbTaVW,BCC,S,AC,80,12.4,536,C,25.0,1246.0,1270.0,2,,232.0,,,,total elongation ,,,,,57
353,73,10.1016/j.intermet.2011.01.004,MoNbTaVW,BCC,S,AC,,12.4,,C,600.0,862.0,,13,,,,,,,,,,,57
354,73,10.1016/j.intermet.2011.01.004,MoNbTaVW,BCC,S,AC,,12.4,,C,800.0,846.0,,17,,,,,,,,,,,57
355,73,10.1016/j.intermet.2011.01.004,MoNbTaVW,BCC,S,AC,,12.4,,C,1000.0,842.0,,19,,,,,,,,,,,57
356,73,10.1016/j.intermet.2011.01.004,MoNbTaVW,BCC,S,AC,,12.4,,C,1200.0,735.0,,7.5,,,,,,,,,,,57
357,73,10.1016/j.intermet.2011.01.004,MoNbTaVW,BCC,S,AC,,12.4,,C,1400.0,656.0,,40,,,,,,,,,,,57
358,73,10.1016/j.intermet.2011.01.004,MoNbTaVW,BCC,S,AC,,12.4,,C,1600.0,477.0,,40,,,,,,,,,,,57
359,73,10.1016/j.intermet.2011.01.004,MoNbTaW,BCC,S,AC,200,13.7,454,C,25.0,1058.0,1211.0,2,,258.0,,,,,,,,,57
360,73,10.1016/j.intermet.2011.01.004,MoNbTaW,BCC,S,AC,,13.8,,C,600.0,561.0,,40,,,,,,,,,,,57
361,73,10.1016/j.intermet.2011.01.004,MoNbTaW,BCC,S,AC,,13.8,,C,800.0,552.0,,40,,,,,,,,,,,57
362,73,10.1016/j.intermet.2011.01.004,MoNbTaW,BCC,S,AC,,13.8,,C,1000.0,548.0,,40,,,,,,,,,,,57
363,73,10.1016/j.intermet.2011.01.004,MoNbTaW,BCC,S,AC,,13.8,,C,1200.0,506.0,,40,,,,,,,,,,,57
364,73,10.1016/j.intermet.2011.01.004,MoNbTaW,BCC,S,AC,,13.8,,C,1400.0,421.0,,40,,,,,,,,,,,57
365,73,10.1016/j.intermet.2011.01.004,MoNbTaW,BCC,S,AC,,13.8,,C,1600.0,405.0,,40,,,,,,,,,,,57