,REFERENCE: tag,REFERENCE: doi,FORMULA,PROPERTY: Type of phases,PROPERTY: Single/Multiphase,PROPERTY: synthesis method,PROPERTY: grain size ($\mu$m),PROPERTY: ROM Density (g/cm$^3$),PROPERTY: HV,PROPERTY: Type of test,PROPERTY: Test temperature ($^\circ$C),PROPERTY: YS (MPa),PROPERTY: UTS (MPa),PROPERTY: Elongation (%),PROPERTY: Elongation plastic (%),PROPERTY: Young modulus (GPa),PROPERTY: O content (wppm),PROPERTY: N content (wppm),PROPERTY: C content (wppm),REFERENCE: comment,"Internal Reference # (J4, J90)","J4, J90 Original DOI",PROPERTY: Exp. Density (g/cm$^3$),Unnamed: 22,IDENTIFIER: Reference ID
49,J4,10.1016/j.matchar.2018.06.036,AlCoCrFeNi,BCC + B2 + FCC,M,A,,,,C,25.0,1220,,13,,,,,,,70,10.1016/j.jallcom.2016.05.034,,,159
50,J4,10.1016/j.matchar.2018.06.036,AlCoCrFeNi,BCC + B2 + FCC,M,A,,,,C,25.0,1450,,20,,,,,,,70,10.1016/j.jallcom.2016.05.034,,,159
51,J4,10.1016/j.matchar.2018.06.036,AlCoCrFeNi,FCC + BCC,M,A,,,,T,25.0,900,935,0.8,,,,,,I don't like this reference...,71,10.1016/j.jallcom.2017.03.307,,,159
52,J4,10.1016/j.matchar.2018.06.036,Al17Cr17Fe33Ni33,FCC + BCC + B2,M,AC,,,,T,25.0,796,1437,15.7,,,,,,,73,10.1016/j.matlet.2016.01.096,,,159
53,J4,10.1016/j.matchar.2018.06.036,Al17Co17Cr17Fe17Ni33.3,L12 + B2,M,,,,,T,25.0,545,1030,16.5,,,,,,the reference has more accurate numbers: https://sci-hub.tw/https://doi.org/10.1016/j.actamat.2016.11.016,74,10.1016/j.actamat.2016.11.016,,,159
54,J4,10.1016/j.matchar.2018.06.036,Al16Co16Cr16Fe16Ni34.4,L12 + B2,M,,,,,T,25.0,545,1050,16.5,,,,,,the reference has more accurate numbers: https://sci-hub.tw/https://doi.org/10.1016/j.actamat.2016.11.017,74,10.1016/j.actamat.2016.11.016,,,159
55,J4,10.1016/j.matchar.2018.06.036,Al16Co16Cr16Fe16Ni35.5,L12 + B2,M,,,,,T,25.0,545,1110,20,,,,,,the reference has more accurate numbers: https://sci-hub.tw/https://doi.org/10.1016/j.actamat.2016.11.018,74,10.1016/j.actamat.2016.11.016,,,159
56,J4,10.1016/j.matchar.2018.06.036,Al17Co17Cr17Fe17Ni33.3,,,,,,,T,-70.0,580,1034,10.5,,,,,,the reference has more accurate numbers: https://sci-hub.tw/https://doi.org/10.1016/j.actamat.2016.11.019,74,10.1016/j.actamat.2016.11.016,,,159
57,J4,10.1016/j.matchar.2018.06.036,Al16Co16Cr16Fe16Ni34.4,,,,,,,T,-70.0,595,1168,15.8,,,,,,the reference has more accurate numbers: https://sci-hub.tw/https://doi.org/10.1016/j.actamat.2016.11.020,74,10.1016/j.actamat.2016.11.016,,,159
58,J4,10.1016/j.matchar.2018.06.036,Al16Co16Cr16Fe16Ni35.5,,,,,,,T,-70.0,570,1143,18,,,,,,the reference has more accurate numbers: https://sci-hub.tw/https://doi.org/10.1016/j.actamat.2016.11.021,74,10.1016/j.actamat.2016.11.016,,,159
59,J4,10.1016/j.matchar.2018.06.036,Al17Co17Cr17Fe17Ni33.3,,,,,,,T,-192.0,700,1000,4,,,,,,UTS range (low value recorded),74,10.1016/j.actamat.2016.11.016,,,159
60,J4,10.1016/j.matchar.2018.06.036,Al16Co16Cr16Fe16Ni34.4,,,,,,,T,-192.0,700,1000,7,,,,,,UTS range (low value recorded),74,10.1016/j.actamat.2016.11.016,,,159
61,J4,10.1016/j.matchar.2018.06.036,Al16Co16Cr16Fe16Ni35.5,,,,,,,T,-192.0,700,1000,9,,,,,,UTS range (low value recorded),74,10.1016/j.actamat.2016.11.016,,,159
62,J4,10.1016/j.matchar.2018.06.036,Al12Co18Cr18Fe35Ni18,BCC + B2,M,AC,,,,T,25.0,866,1223,7.9,,,,,,,77,10.1016/j.scriptamat.2016.04.014,,,159
63,J4,10.1016/j.matchar.2018.06.036,Al12Co18Cr18Fe35Ni18,,,AC,,,,T,650.0,400,468,6.3,,,,,,,77,10.1016/j.scriptamat.2016.04.014,,,159
64,J4,10.1016/j.matchar.2018.06.036,Al12Co18Cr18Fe35Ni18,,,AC,,,,T,700.0,220,340,5.4,,,,,,,77,10.1016/j.scriptamat.2016.04.014,,,159
65,J4,10.1016/j.matchar.2018.06.036,Al12Co18Cr18Fe35Ni18,,,AC,,,,C,25.0,1166,,30.2,,,,,,,77,10.1016/j.scriptamat.2016.04.014,,,159
66,J4,10.1016/j.matchar.2018.06.036,Co35Cr15Fe20Ni20Mo10,FCC,S,AC,,,,T,25.0,350,720,21.9,,,,,,wrong processing ,85,10.1016/j.scriptamat.2017.05.019,,,159
67,J4,10.1016/j.matchar.2018.06.036,Co35Cr15Fe20Ni20Mo10,FCC + $\mu$,M,CR + A,,,,T,25.0,1311,1410,12.1,,,,,,wrong processing ,85,10.1016/j.scriptamat.2017.05.019,,,159
68,J4,10.1016/j.matchar.2018.06.036,Co35Cr15Fe20Ni20Mo10,FCC + $\mu$,M,CR + A,,,,T,25.0,1212,1360,14.9,,,,,,wrong processing ,85,10.1016/j.scriptamat.2017.05.019,,,159
69,J4,10.1016/j.matchar.2018.06.036,Co35Cr15Fe20Ni20Mo10,FCC + $\mu$,M,CR + A,,,,T,25.0,1028,1249,18.3,,,,,,wrong processing ,85,10.1016/j.scriptamat.2017.05.019,,,159
70,J4,10.1016/j.matchar.2018.06.036,Co35Cr15Fe20Ni20Mo10,FCC + $\mu$,M,CR + A,,,,T,25.0,879,1194,25.4,,,,,,wrong processing ,85,10.1016/j.scriptamat.2017.05.019,,,159
71,J4,10.1016/j.matchar.2018.06.036,Co35Cr15Fe20Ni20Mo10,FCC + $\mu$,M,CR + A,,,,T,25.0,799,1127,28.2,,,,,,wrong processing ,85,10.1016/j.scriptamat.2017.05.019,,,159
72,J4,10.1016/j.matchar.2018.06.036,Co35Cr15Fe20Ni20Mo10,FCC,S,CR + A,,,,T,25.0,350,918,62.4,,,,,,wrong processing ,85,10.1016/j.scriptamat.2017.05.019,,,159
73,J4,10.1016/j.matchar.2018.06.036,Co25Cr25Fe25Ni25,FCC,S,AC,,,,T,25.0,155,472.4,58.9,,,,,,,79,10.1016/j.actamat.2016.06.063,,,159
74,J4,10.1016/j.matchar.2018.06.036,Co24Cr24Fe24Ni24Mo2,,,AC,,,,T,25.0,198.8,479,51.1,,,,,,,79,10.1016/j.actamat.2016.06.063,,,159
75,J4,10.1016/j.matchar.2018.06.036,Co24Cr24Fe24Ni24Mo5,,,AC,,,,T,25.0,254.7,589.6,55.1,,,,,,,79,10.1016/j.actamat.2016.06.063,,,159
76,J4,10.1016/j.matchar.2018.06.036,Co23Cr23Fe23Ni23Mo7,FCC + $\sigma$,M,AC,,,,T,25.0,305.3,709.7,49.3,,,,,,,79,10.1016/j.actamat.2016.06.063,,,159
77,J4,10.1016/j.matchar.2018.06.036,Co23Cr23Fe23Ni23Mo7,FCC + $\mu$ + $\sigma$,M,CR + A,1 - 5,,,T,25.0,815.5,1186.5,18.9,,,,,,not the actual grain size. precipitate sizes currently recorded,79,10.1016/j.actamat.2016.06.063,,,159
78,J4,10.1016/j.matchar.2018.06.036,Co23Cr23Fe23Ni23Mo7,FCC + $\mu$ + $\sigma$,M,CR + A,0.2 - 6,,,T,25.0,646.7,1042,32.5,,,,,,,79,10.1016/j.actamat.2016.06.063,,,159
79,J4,10.1016/j.matchar.2018.06.036,Co23Cr23Fe23Ni23Mo7,FCC + $\mu$ + $\sigma$,M,CR + A,0.2 - 3,,,T,25.0,683.7,1066.6,30.4,,,,,,,79,10.1016/j.actamat.2016.06.063,,,159
80,J4,10.1016/j.matchar.2018.06.036,CoCrFeMnNi,FCC,,HF+A,13,,,T,25.0,243,558,50,,,,,,processing isn't technically as cast because it's forged. so hr ,38,10.1117/1.JEI.26.4.043022,,"Further going back to the original paper, i disagree with their noted elongation. Plus the paper switched two of these (https://www.tandfonline.com/doi/full/10.1080/02670836.2017.1342367?scroll=top&needAccess=true) (ef = 58)",159
81,J4,10.1016/j.matchar.2018.06.036,(CoCrFeMnNi)98C2,FCC + Carbide,,HF+A,8,,,T,25.0,446,723,15,,,,,,processing isn't technically as cast because it's forged. so hr ,38,10.1117/1.JEI.26.4.043022,,"Further going back to the original paper, i disagree with their noted elongation Plus the paper switched two of these (https://www.tandfonline.com/doi/full/10.1080/02670836.2017.1342367?scroll=top&needAccess=true) (ef = 15.5)",159
82,J4,10.1016/j.matchar.2018.06.036,CoCrFeMnNi,FCC,,HF+CR+A,7,,,T,25.0,249,621,41,,,,,,,38,10.1117/1.JEI.26.4.043022,,ef = 47,159
83,J4,10.1016/j.matchar.2018.06.036,(CoCrFeMnNi)98C2,FCC + Carbide,,HF+CR+A,4,,,T,25.0,581,857,28,,,,,,fixed grain size ,38,10.1117/1.JEI.26.4.043022,,ef = 35,159
84,J4,10.1016/j.matchar.2018.06.036,CoCrFeNi,FCC,S,A,,,,T,25.0,190,453,70,,,,,,,78,10.1016/j.actamat.2015.08.076,,,159
85,J4,10.1016/j.matchar.2018.06.036,Al4Co24Cr24Fe24Ni24Ti2,FCC,S,A,289.7,,,T,25.0,210,503,70,,,,,,added grain size ,78,10.1016/j.actamat.2015.08.076,,,159
86,J4,10.1016/j.matchar.2018.06.036,Al4Co24Cr24Fe24Ni24Ti2,FCC + L12 + L21,M,CR + A,15.7,,,T,25.0,645,1094,39,,,,,,added grain size ,78,10.1016/j.actamat.2015.08.076,,,159
87,J4,10.1016/j.matchar.2018.06.036,Al4Co24Cr24Fe24Ni24Ti2,FCC + L12 + L21,M,CR + A,2.8,,,T,25.0,1005,1273,17,,,,,,added grain size ,78,10.1016/j.actamat.2015.08.076,,,159
88,J4,10.1016/j.matchar.2018.06.036,Al4Co19Cr19Cu4Fe19Ni37,FCC + L12,S,CR + A,,,,T,25.0,719,1048,30,,,,,,jasper got this right but the review paper got it wrong. They switched which one was two phase,76,10.1016/j.msea.2017.04.111,,,159
89,J4,10.1016/j.matchar.2018.06.036,Al4Co19Cr19Cu4Fe19Ni37,FCC,M,CR + A,,,,T,25.0,460,732,32,,,,,,jasper got this right but the review paper got it wrong. They switched which one was two phase,76,10.1016/j.msea.2017.04.111,,,159
90,J4,10.1016/j.matchar.2018.06.036,Al8Co17Cr17Cu8Fe17Ni33,FCC + L12,M,AC,,,280 $\pm$ 18,T,25.0,357,459,9,,,,,,,88,10.1016/j.ultramic.2015.06.009,,,159
91,J4,10.1016/j.matchar.2018.06.036,Al8Co17Cr17Cu8Fe17Ni33,,,A,,,168 $\pm$ 5,,,,,,,,,,,,88,10.1016/j.ultramic.2015.06.009,,,159
92,J4,10.1016/j.matchar.2018.06.036,Al8Co17Cr17Cu8Fe17Ni33,,,A,,,328 $\pm$ 7,,,,,,,,,,,,88,10.1016/j.ultramic.2015.06.009,,,159
93,J4,10.1016/j.matchar.2018.06.036,Al8Co17Cr17Cu8Fe17Ni33,,,A,,,206 $\pm$ 5,,,,,,,,,,,,,This Article,,,159
94,J4,10.1016/j.matchar.2018.06.036,Al8Co17Cr14Cu8Fe17Ni35W0.1Mo0.1Ti1,,,AC,,,231 $\pm$ 12,,,,,,,,,,,,88,10.1016/j.ultramic.2015.06.009,,,159
95,J4,10.1016/j.matchar.2018.06.036,Al8Co17Cr14Cu8Fe17Ni35W0.1Mo0.1Ti1,,,A,,,178 $\pm$ 7,,,,,,,,,,,,88,10.1016/j.ultramic.2015.06.009,,,159
96,J4,10.1016/j.matchar.2018.06.036,Al8Co17Cr14Cu8Fe17Ni35W0.1Mo0.1Ti1,,,A,,,343 $\pm$ 6,,,,,,,,,,,,88,10.1016/j.ultramic.2015.06.009,,,159
97,J4,10.1016/j.matchar.2018.06.036,Al8Co17Cr14Cu8Fe17Ni35W0.1Mo0.1Ti1,,,A,,,171 $\pm$ 7,,,,,,,,,,,,,This Article,,,159
98,J4,10.1016/j.matchar.2018.06.036,Al10Co25Cr8Fe15Ni36Ti6,,,AC,,,343 $\pm$ 22,,,,,,,,,,,,30,10.1007/s11837-015-1484-7,,,159
99,J4,10.1016/j.matchar.2018.06.036,Al10Co25Cr8Fe15Ni36Ti6,,,A,,,341 $\pm$ 12,,,,,,,,,,,,30,10.1007/s11837-015-1484-7,,,159
100,J4,10.1016/j.matchar.2018.06.036,Al10Co25Cr8Fe15Ni36Ti6,FCC + L12 + C1,M,A,,,345 $\pm$ 14,T,25.0,568,786,12,,,,,,,30,10.1007/s11837-015-1484-7,,,159
101,J4,10.1016/j.matchar.2018.06.036,Al10Co25Cr8Fe15Ni36Ti6,FCC + L12 + C1,M,A,,,345 $\pm$ 18,T,25.0,596,1039,20,,,,,,,30,10.1007/s11837-015-1484-7,,,159
102,J4,10.1016/j.matchar.2018.06.036,Al8Co17Cr17Cu8Fe17Ni33,FCC + L12,M,A,,,,T,25.0,215,489,39,,,,,,,88,10.1016/j.ultramic.2015.06.009,,,159
103,J4,10.1016/j.matchar.2018.06.036,Al10Co25Cr8Fe15Ni36Ti6,FCC + L12 + C1,M,A,0.37,,345 $\pm$ 14,T,700.0,487,702,18,,,,,,,30,10.1007/s11837-015-1484-7,,,159
104,J4,10.1016/j.matchar.2018.06.036,Al10Co25Cr8Fe15Ni36Ti6,FCC + L12 + C1,M,A,0.32,,345 $\pm$ 18,T,700.0,486,624,11,,,,,,,30,10.1007/s11837-015-1484-7,,,159
105,J4,10.1016/j.matchar.2018.06.036,Al23Cr26Fe26Ni26,BCC + B2,M,AC,,,,C,25.0,770,,37.1,,,,,,,75,10.1016/j.msea.2016.11.019,,,159
106,J4,10.1016/j.matchar.2018.06.036,AlCrFeNi,BCC + B2,M,AC,,,,C,25.0,843.2,,34.6,,,,,,,75,10.1016/j.msea.2016.11.019,,,159
107,J4,10.1016/j.matchar.2018.06.036,Al27Cr24Fe24Ni24,BCC + B2,M,AC,,,,C,25.0,1044,,27.1,,,,,,,75,10.1016/j.msea.2016.11.019,,,159
108,J4,10.1016/j.matchar.2018.06.036,Al29Cr24Fe24Ni24,BCC + B2,M,AC,,,,C,25.0,906.8,,31.4,,,,,,,75,10.1016/j.msea.2016.11.019,,,159
109,J4,10.1016/j.matchar.2018.06.036,Al30Cr23Fe23Ni23,BCC + B2,M,AC,,,,C,25.0,1122.8,,24.7,,,,,,,75,10.1016/j.msea.2016.11.019,,,159
110,J4,10.1016/j.matchar.2018.06.036,Al17Cr17Fe34Ni34,BCC + B2,M,AC,,,,C,25.0,,,17,,,,,,,73,10.1016/j.matlet.2016.01.096,,,159
111,J4,10.1016/j.matchar.2018.06.036,AlCoCrFeNi,BCC + B2,M,AC,,,,C,25.0,,,22.7,,,,,,,109,10.1016/j.matdes.2013.12.048,,,159
112,J4,10.1016/j.matchar.2018.06.036,Al18Cr18Fe17Ni33Ti9,BCC + B2 + L12,M,AC,,,,C,25.0,,,16.3,,,,,,,53,10.1016/j.jmst.2014.09.011,,,159
113,J4,10.1016/j.matchar.2018.06.036,Al18Cr18Fe17Ni33Ti9,BCC + B2 + L12,M,A,,,,C,25.0,,,19.8,,,,,,,53,10.1016/j.jmst.2014.09.011,,,159
114,J4,10.1016/j.matchar.2018.06.036,Al24Cr24Fe24Mo5Ni24,BCC + B2,M,AC,,,,C,25.0,,,28.7,,,,,,,49,10.1016/j.jallcom.2013.03.253,,,159
115,J4,10.1016/j.matchar.2018.06.036,Cr22Fe22Ni22V11W22,FCC + BCC + $\sigma$,M,AC,,,,C,25.0,,,7.3,,,,,,,50,10.1007/s11665-015-1767-8,,,159
116,J4,10.1016/j.matchar.2018.06.036,CoCrCuFeNi,FCC + FCC,M,AC,,,,C,25.0,,,50.2,,,,,,,48,10.1016/j.intermet.2006.08.005,,,159
117,J4,10.1016/j.matchar.2018.06.036,Al17Cr17Cu17Fe17Ni33,FCC + BCC + B2,M,AC,,,,C,25.0,,,30,,,,,,,110,10.1016/j.msea.2015.09.089,,,159
118,J4,10.1016/j.matchar.2018.06.036,CoCrFeMnNi,FCC,S,A,,,,C,25.0,230,,75,,,,,,,96,10.1134/S0031918X17060084,,,159
119,J4,10.1016/j.matchar.2018.06.036,Co19Cr19Fe19Mn19Ni19V5,FCC + $\sigma$,M,A,,,,C,25.0,200,,75,,,,,,,96,10.1134/S0031918X17060084,,,159
120,J4,10.1016/j.matchar.2018.06.036,Co18Cr18Fe18Mn18Ni18V9,FCC + $\sigma$,M,A,,,,C,25.0,620,,75,,,,,,,96,10.1134/S0031918X17060084,,,159
121,J4,10.1016/j.matchar.2018.06.036,Co17Cr17Fe17Mn17Ni17V13,FCC + $\sigma$,M,A,,,,C,25.0,780,,8,,,,,,,96,10.1134/S0031918X17060084,,,159
122,J4,10.1016/j.matchar.2018.06.036,CoCrFeMnNiV,FCC + $\sigma$,M,A,,,,C,25.0,1700,,1,,,,,,,96,10.1134/S0031918X17060084,,,159
123,J4,10.1016/j.matchar.2018.06.036,Al7Co23Cr23Fe23Ni23,FCC,S,AC,,,,C,25.0,,,25,,,,,,,111,10.1016/j.msea.2015.02.072,,,159
124,J4,10.1016/j.matchar.2018.06.036,CoCrFeNi,FCC,S,AC,,,,C,25.0,,,83,,,,,,,112,10.1016/j.jallcom.2013.12.210,,,159
125,J4,10.1016/j.matchar.2018.06.036,Al17Cr17Co17Fe17Ni33.3,FCC + B2,M,AC,,,,T,25.0,545,1030,16.5,,,,,,the values given by the review are a little off from the values provided by the reference itself https://sci-hub.tw/https://doi.org/10.1016/j.actamat.2016.11.016,74,10.1016/j.actamat.2016.11.016,,,159
126,J4,10.1016/j.matchar.2018.06.036,Al16Cr16Co16Fe16Ni34.4,FCC + B2,M,AC,,,,T,25.0,545,1050,16.5,,,,,,the values given by the review are a little off from the values provided by the reference itself https://sci-hub.tw/https://doi.org/10.1016/j.actamat.2016.11.017,74,10.1016/j.actamat.2016.11.016,,,159
127,J4,10.1016/j.matchar.2018.06.036,Al16Cr16Co16Fe16Ni35.5,FCC + B2,M,AC,,,,T,25.0,545,1110,20,,,,,,the values given by the review are a little off from the values provided by the reference itself https://sci-hub.tw/https://doi.org/10.1016/j.actamat.2016.11.018,74,10.1016/j.actamat.2016.11.016,,,159
128,J4,10.1016/j.matchar.2018.06.036,Al4Co19Cr19Cu4Fe19Ni37,FCC,S,CR + A,,,,T,25.0,719,1048,30,,,,,,,76,10.1016/j.msea.2017.04.111,,,159
129,J4,10.1016/j.matchar.2018.06.036,Al4Co19Cr19Cu4Fe19Ni37,FCC + L12,M,CR + A,,,,T,25.0,460,732,32,,,,,,,76,10.1016/j.msea.2017.04.111,,,159
130,J4,10.1016/j.matchar.2018.06.036,Al8Co17Cr17Cu8Fe17Ni33,fcc + L12+ Cr23C6,M,AC,,,,T,25.0,357,459,9,,,,,,,86,10.1007/s11837-013-0756-3,,,159
131,J4,10.1016/j.matchar.2018.06.036,Al8Co17Cr17Cu8Fe17Ni33,fcc + L12+ Cr23C6,M,A,,,,T,25.0,365,365,0.1,,,,,,,86,10.1007/s11837-013-0756-3,,,159
132,J4,10.1016/j.matchar.2018.06.036,Al8Co17Cr17Cu8Fe17Ni33,FCC + L12,M,A,,,,T,25.0,215,489,39,,,,,,,86,10.1007/s11837-013-0756-3,,,159
133,J4,10.1016/j.matchar.2018.06.036,Al9Co18Cr18Cu18Fe18Ni18,FCC1 + FCC2,M,A + CR,,,,T,25.0,1284,1344,7.6,,,,,,Inverted order of processing ,113,10.1016/j.actamat.2015.07.004,,,159
134,J4,10.1016/j.matchar.2018.06.036,Al9Co18Cr18Cu18Fe18Ni18,FCC,S,CR,,,,T,25.0,1290,1400,5,,,,,,,114,10.1016/j.jallcom.2009.10.088,,,159
135,J4,10.1016/j.matchar.2018.06.036,Al9Co18Cr18Cu18Fe18Ni18,FCC1 + FCC2,M,CR + A,,,,T,25.0,650,790,27,,,,,,,114,10.1016/j.jallcom.2009.10.088,,,159
136,J4,10.1016/j.matchar.2018.06.036,AlCoCrCuFeNi,BCC + FCC1 + FCC2,M,AC,,,,T,25.0,790,790,0.2,,,,,,,42,10.1016/j.msea.2011.11.045,,,159
137,J4,10.1016/j.matchar.2018.06.036,AlCoCrCuFeNi,BCC + FCC1 + FCC2 + $\sigma$,M,HF,,,,T,25.0,1040,1170,1,,,,,,forging isn't as cast,42,10.1016/j.msea.2011.11.045,,,159
138,J4,10.1016/j.matchar.2018.06.036,CoCrFeMnNi,FCC,S,AC,,,,T,25.0,209,496,62,,,,,,,115,10.1016/j.actamat.2013.09.037,,,159
139,J4,10.1016/j.matchar.2018.06.036,Al7Co23Cr23Fe23Ni23,FCC,S,AC,,,,T,25.0,210,500,58,,,,,,,115,10.1016/j.actamat.2013.09.037,,,159
140,J4,10.1016/j.matchar.2018.06.036,Al8Co23Cr23Fe23Ni23,FCC + BCC,M,AC,,,,T,25.0,242,529,47,,,,,,,115,10.1016/j.actamat.2013.09.037,,,159
141,J4,10.1016/j.matchar.2018.06.036,Al9Co23Cr23Fe23Ni23,FCC + BCC,M,AC,,,,T,25.0,275,610,36,,,,,,,115,10.1016/j.actamat.2013.09.037,,,159
142,J4,10.1016/j.matchar.2018.06.036,Al10Co23Cr23Fe23Ni23,FCC + BCC,M,AC,,,,T,25.0,320,700,30,,,,,,,115,10.1016/j.actamat.2013.09.037,,,159
143,J4,10.1016/j.matchar.2018.06.036,Al11Co22Cr22Fe22Ni22,FCC + BCC,M,AC,,,,T,25.0,500,980,19,,,,,,,115,10.1016/j.actamat.2013.09.037,,,159
144,J4,10.1016/j.matchar.2018.06.036,Al7Co23Cr23Fe23Ni23,FCC + BCC + B2,M,AC,,,,T,25.0,832,1174,7.7,,,,,,,115,10.1016/j.actamat.2013.09.037,,,159
145,J4,10.1016/j.matchar.2018.06.036,AlCoCrFeNi,BCC + B2,M,AC,,,,T,700.0,395,400,1,,,,,,tests were all done at 700C ,72,10.1016/j.msea.2015.08.078,,,159
146,J4,10.1016/j.matchar.2018.06.036,AlCoCrFeNi,BCC + B2 + FCC + $\sigma$,M,HIP + A,,,,T,700.0,295,393,12,,,,,,tests were all done at 700C; changed processing from AC to HIPED + A,72,10.1016/j.msea.2015.08.078,,,159
147,J4,10.1016/j.matchar.2018.06.036,AlCoCrCuFeNi,BCC + FCC1 + FCC2,M,AC,,,,T,700.0,350,360,5,,,,,,tests were all done at 700C ,42,10.1016/j.msea.2011.11.045,,,159
148,J4,10.1016/j.matchar.2018.06.036,AlCoCrCuFeNi,BCC + FCC1 + FCC2 + $\sigma$,M,HF,,,,T,700.0,63,91,63,,,,,,tests were all done at 700C; changed processing from AC to F,42,10.1016/j.msea.2011.11.045,,,159
149,J4,10.1016/j.matchar.2018.06.036,Al9Co18Cr18Cu18Fe18Ni18,FCC,S,CR,,,,T,700.0,180,185,5,,,,,,tests were all done at 700C ,114,10.1016/j.jallcom.2009.10.088,,,159
150,J4,10.1016/j.matchar.2018.06.036,Al9Co18Cr18Cu18Fe18Ni18,FCC1 + FCC2,M,CR + A,,,,T,700.0,160,180,12,,,,,,tests were all done at 700C ,114,10.1016/j.jallcom.2009.10.088,,,159
151,J5,10.1016/j.actamat.2018.11.049,FeCoNiCrTi0.2,FCC,S,CR + A,51,,,T,25.0,700,1240,36,,,,,,"missed the ductility values, incorrect processing (from AC to CR + A), grain size to 51",,,4.8,,170
152,J5,10.1016/j.actamat.2018.11.049,FeCoNiCrTi0.2,FCC,S,CR + A,51,,,T,-196.0,860,1580,46,,,,,,"missed the ductility values, incorrect processing (from AC to CR + A), grain size to 51",,,4.8,,170
153,J6,10.1016/j.actamat.2018.12.012,Al0.1CoCrFeNi,FCC,S,CR,20,,,T,25.0,1198 $\pm$ 27,,1.5 $\pm$ 0.3,,,,,,,,,,,179
154,J6,10.1016/j.actamat.2018.12.012,Al0.1CoCrFeNi,FCC,S,CR + A,20,,,T,25.0,1403 $\pm$ 20,,1.2 $\pm$ 0.1,,,,,,"For future reference, any repeated formulat that includes Annealing (A) as synthesis method is assumed to have varying annealing duration and temperatures as the experimental variable",,,,,179
155,J6,10.1016/j.actamat.2018.12.012,Al0.1CoCrFeNi,FCC,S,CR + A,20,,,T,25.0,711 $\pm$ 40,928 $\pm$ 35,30.3 $\pm$ 3.7,,,,,,,,,,,179
156,J6,10.1016/j.actamat.2018.12.012,Al0.1CoCrFeNi,FCC,S,CR + A,7,,,T,25.0,356 $\pm$ 13,,42.4 $\pm$ 0.6,,,,,,,,,,,179
157,J7,10.1016/j.msea.2018.10.094,CoCrFeMnNi,FCC,S,CR + A,0.5,,,T,25.0,1120,,1.1,,,,,,,,,,,189
158,J7,10.1016/j.msea.2018.10.094,CoCrFeMnNi,FCC,S,CR + A,0.5,,,T,-196.0,1692,,10.3,,,,,,,,,,,189
159,J8,10.1016/j.jallcom.2018.08.176,CrFeNi2Al,FCC + BCC + B2,M,AC,,,,T,25.0,774,1357,6.4,,,,,,,,,,,199
160,J8,10.1016/j.jallcom.2018.08.176,CrFeNi2.1Al0.9,FCC + BCC + B2,M,AC,,,,T,25.0,610,1173,9.1,,,,,,,,,,,199
161,J8,10.1016/j.jallcom.2018.08.176,CrFeNi2.2Al0.8,FCC + BCC + B2,M,AC,,,,T,25.0,479,956,12.7,,,,,,,,,,,199
162,J8,10.1016/j.jallcom.2018.08.176,CrFeNi2.3Al0.7,FCC + BCC + B2,M,AC,,,,T,25.0,461,835,30,,,,,,,,,,,199
163,J8,10.1016/j.jallcom.2018.08.176,CrFeNi2.4Al0.6,FCC,S,AC,,,,T,25.0,441,757,45,,,,,,,,,,,199
164,J10,10.1016/j.actamat.2018.12.015,CrCoNi,FCC,S,CR + A,1.6,,468,T,25.0,1100,,23,,,,,,changed grain size,,,,,100
165,J10,10.1016/j.actamat.2018.12.015,CrCoNi,FCC,S,CR + A,2.3,,326,T,,597,,53,,,,,,new data,,,,,100
166,J10,10.1016/j.actamat.2018.12.015,CrCoNi,FCC,S,CR + A,24,,223,T,,346,,76,,,,,,new data,,,,,100
167,J11,10.1038/s41467-019-08460-2,AlCoCrFeNi2.1,FCC + B2,M,CR + A,,,,T,25.0,1263,,21.4,,,,,,recorded ref value not true values; had to go to supplementary,,,,,107
168,J11,10.1038/s41467-019-08460-2,AlCoCrFeNi2.1,FCC + B2,M,CR + A,,,,T,25.0,1154,,25,,,,,,new values,,,,,107
169,J11,10.1038/s41467-019-08460-2,AlCoCrFeNi2.1,FCC + B2,M,CR + A,,,,T,25.0,1490,,16,,,,,,new values,,,,,107
170,J12,10.1016/j.scriptamat.2018.11.042,CrMnFeCoNi,FCC,S,AC,,,130.2,C,25.0,210,,57,,,,,,pulled ductility off plot,,,,,117
171,J12,10.1016/j.scriptamat.2018.11.042,CrMnFeCoNi,FCC,S,CR,,,394.1,C,25.0,1150,,6,,,,,,pulled ductility off plot,,,,,117