,REFERENCE: tag,REFERENCE: doi,FORMULA,PROPERTY: Type of phases,PROPERTY: Single/Multiphase,PROPERTY: synthesis method,PROPERTY: grain size ($\mu$m),PROPERTY: ROM Density (g/cm$^3$),PROPERTY: HV,PROPERTY: Type of test,PROPERTY: Test temperature ($^\circ$C),PROPERTY: YS (MPa),PROPERTY: UTS (MPa),PROPERTY: Elongation (%),PROPERTY: Elongation plastic (%),PROPERTY: ROM Young modulus (GPa),PROPERTY: Exp. Young modulus (GPa),PROPERTY: O content (wppm),PROPERTY: N content (wppm),PROPERTY: C content (wppm),REFERENCE: comment,Internal Reference #,Original DOI,PROPERTY: Exp. Density (g/cm$^3$),Unnamed: 22,IDENTIFIER: Reference ID
628,J74,10.1007/s40195-019-00921-3,Ti2ZrHf0.5VNb,BCC,S,AC,,,310.4,C,800.0,195,,>50,,,,,,,added high temperature data,,,,,239
629,J75,10.1016/j.matchar.2019.05.043,FeCrCuMnNi,2FCC + BCC,M,CR,,,398,T,25.0,1190,1300,4.3,,,,,,,changed to 2FCC + BCC,,,,,240
630,J75,10.1016/j.matchar.2019.05.043,FeCrCuMnNi,2FCC + BCC,M,CR + A,1.4,,367,T,25.0,1170,1270,10.7,,,,,,,changed to 2FCC + BCC,,,,,240
631,J75,10.1016/j.matchar.2019.05.043,FeCrCuMnNi,2FCC + BCC,M,CR + A,1.5,,312,T,25.0,1030,1190,11.4,,,,,,,changed to 2FCC + BCC,,,,,240
632,J75,10.1016/j.matchar.2019.05.043,FeCrCuMnNi,2FCC + BCC,M,CR + A,1.9,,271,T,25.0,970,1110,12.1,,,,,,,changed to 2FCC + BCC,,,,,240
633,J75,10.1016/j.matchar.2019.05.043,FeCrCuMnNi,2FCC + BCC,M,CR + A,2.2,,183,T,25.0,850,960,14.3,,,,,,,changed to 2FCC + BCC,,,,,240
634,J75,10.1016/j.matchar.2019.05.043,FeCrCuMnNi,2FCC + BCC,M,CR + A,6.5,,162,T,25.0,470,640,34.8,,,,,,,changed to 2FCC + BCC,,,,,240
635,J76,10.1016/j.matlet.2019.04.012,CoCrFeNi2.1Nb0.2,FCC + Laves,M,AC,,,,T,25.0,170,537,32,,,,,,,,,,,,241
636,J76,10.1016/j.matlet.2019.04.012,CoCrFeNi2.1Nb0.4,FCC + Laves,M,AC,,,,T,25.0,640,840,7,,,,,,,,,,,,241
637,J76,10.1016/j.matlet.2019.04.012,CoCrFeNi2.1Nb0.2,FCC + Laves + D019,M,A,,,,T,25.0,560,860,19,,,,,,,,,,,,241
638,J76,10.1016/j.matlet.2019.04.012,CoCrFeNi2.1Nb0.4,FCC + Laves,M,A,,,,T,25.0,,,3,,,,,,,,,,,,241
639,J77,10.1007/s40195-019-00916-0,(CoCrFeMnNi)95C5,FCC + M23C6,M,A,,,345,C,800.0,,,,,,,,,,,,,,,242
640,J77,10.1007/s40195-019-00916-0,(CoCrFeMnNi)95C5,FCC + M23C6,M,A,,,285,C,1000.0,,,,,,,,,,,,,,,242
641,J78,10.1016/j.matchar.2019.05.022,AlCoCrFeNi,BCC + FCC,M,SPS,10.21,,550 $\pm$ 12,C,25.0,1221.1 $\pm$ 15,,30,23.2,,,,,,"changed elongation to total elongation, not plastic",,,,,243
642,J78,10.1016/j.matchar.2019.05.022,AlCoCrFeNi,BCC + FCC,M,SPS,15.68,,510 $\pm$ 11,C,25.0,1186.7 $\pm$ 16,,33,26.5,,,,,,"changed elongation to total elongation, not plastic",,,,,243
643,J78,10.1016/j.matchar.2019.05.022,AlCoCrFeNi,BCC + FCC,M,SPS,16.7,,503 $\pm$ 14,C,25.0,1112.9 $\pm$ 20,,30,21.4,,,,,,"changed elongation to total elongation, not plastic",,,,,243
644,J79,10.1007/s11837-019-03432-9,WMoNbCrTi,BCC + Laves,M,SPS,,,,C,25.0,2500,,10,,,,,,,Experimental Variable was ball milling time. ,,,,,244
645,J79,10.1007/s11837-019-03432-9,WMoNbCrTi,BCC + Laves,M,SPS,,,,C,25.0,1260,,4.8,,,,,,,Added Total Elongation Data from Fig 6,,,,,244
646,J79,10.1007/s11837-019-03432-9,WMoNbCrTi,BCC + Laves,M,SPS,,,,C,25.0,1630,,4.85,,,,,,,,,,,,244
647,J79,10.1007/s11837-019-03432-9,WMoNbCrTi,BCC + Laves,M,SPS,,,,C,25.0,2030,,4.3,,,,,,,,,,,,244
648,J79,10.1007/s11837-019-03432-9,WMoNbCrTi,BCC + Laves,M,SPS,,,,C,25.0,1920,,5,,,,,,,,,,,,244
649,J80,10.1088/2053-1591/ab2517,AlCoCrFeNi,BCC + B2,M,SPS,,,,C,25.0,,,,,,,,,,,,,,,246
650,J80,10.1088/2053-1591/ab2517,AlCoCrFeNi,BCC + B2,M,SPS,,,,C,25.0,,,,,,,,,,,,,,,246
651,J80,10.1088/2053-1591/ab2517,AlCoCrFeNi,BCC + B2 + FCC,M,SPS,,,,C,25.0,,,,,,,,,,,,,,,246
652,J80,10.1088/2053-1591/ab2517,AlCoCrFeNi,BCC + B2 + FCC,M,SPS,,,,C,25.0,,,,,,,,,,,,,,,246
653,J80,10.1088/2053-1591/ab2517,AlCoCrFeNi,BCC + B2 + FCC,M,SPS,,,,C,25.0,520,,,,,,,,,,,,,,246
654,J80,10.1088/2053-1591/ab2517,AlCoCrFeNi,BCC + B2 + FCC,M,SPS,,,,C,25.0,1150,,,,,,,,,,,,,,246
655,J80,10.1088/2053-1591/ab2517,AlCoCrFeNi,BCC + B2 + FCC,M,SPS,,,,C,25.0,1287,,,,,,,,,,,,,,246
656,J80,10.1088/2053-1591/ab2517,AlCoCrFeNi,BCC + B2 + FCC,M,SPS,,,,C,25.0,1286,,,,,,,,,,,,,,246
657,J80,10.1088/2053-1591/ab2517,AlCoCrFeNi,BCC + B2 + FCC,M,SPS,,,,C,25.0,1390,,,,,,,,,,,,,,246
658,J80,10.1088/2053-1591/ab2517,AlCoCrFeNi,BCC + B2 + FCC,M,SPS,,,,C,25.0,1626,,,,,,,,,,,,,,246
659,J81,10.1016/j.jallcom.2019.04.296,CrFeMnNi,FCC,S,,,,,,,,,,,,,,,,Skipped,,,,,247
660,J82,10.1016/j.msea.2019.138039,Fe40Mn40Co10Cr10,FCC,S,AC,,,,T,25.0,213,471,55.7,,,,,,,Added values for AC and F,,,,,248
661,J82,10.1016/j.msea.2019.138039,Fe40Mn40Co10Cr10,FCC,S,AC,,,,T,25.0,393,634,26.5,,,,,,,,,,,,248
662,J82,10.1016/j.msea.2019.138039,Fe40Mn40Co10Cr10,FCC,S,HF,,,,T,25.0,792,1055,22.6,,,,,,,,,,,,248
663,J82,10.1016/j.msea.2019.138039,Fe40Mn40Co10Cr10,FCC,S,HR + A,18,,,T,25.0,559,1004,33.9,,,,,,,,,,,,248
664,J82,10.1016/j.msea.2019.138039,Fe40Mn40Co10Cr10,FCC,S,HR + A,32,,,T,25.0,512,978,55.3,,,,,,,,,,,,248
665,J82,10.1016/j.msea.2019.138039,Fe40Mn40Co10Cr10,FCC,S,HR + A,63,,,T,25.0,476,947,69.4,,,,,,,,,,,,248
666,J84,10.1016/j.jallcom.2019.04.121,CrMnFeCoNi,FCC,S,CR + A,,,,T,25.0,353,635,,43,,,,,,Fixed with values from summary ,,,,,249
667,J84,10.1016/j.jallcom.2019.04.121,Cr19.68Mn19.68Fe19.68Co19.68Ni19.68Nb0.8C0.8,FCC + NbC,M,CR + A,,,,T,25.0,732,911,,32,,,,,,,,,,,249
668,J85,10.1016/j.matlet.2019.03.075,TiNbTa0.5ZrAl0.5,BCC + HCP,M,HF,,,,C,25.0,1500,,6,,,,,,,Changed AC to F,,,,,250
669,J85,10.1016/j.matlet.2019.03.075,TiNbTa0.5ZrAl0.5,BCC,M,S,,,,,,,,,,,,,,,Added Sintering Data,,,,,250
670,J85,10.1016/j.matlet.2019.03.075,TiNbTa0.5ZrAl0.5,BCC + HCP,M,HF + A,,,,C,25.0,1200,,8,,,,,,,,,,,,250
671,J85,10.1016/j.matlet.2019.03.075,TiNbTa0.5ZrAl0.5,BCC + HCP,M,HF + A,,,,C,25.0,2100,,12,,,,,,,,,,,,250
672,J85,10.1016/j.matlet.2019.03.075,TiNbTa0.5ZrAl0.5,BCC + HCP,M,HF + A,,,,C,25.0,1740,,20,,,,,,,,,,,,250
673,J85,10.1016/j.matlet.2019.03.075,TiNbTa0.5ZrAl0.5,BCC + HCP,M,HF + A,,,,C,25.0,1630,,12,,,,,,,,,,,,250
674,J86,10.1007/s10853-019-03567-9,NbTaWMo,BCC,S,SPS,,,504.5,C,25.0,1217,,7.5,3.8,,,,,,Fixed Elongation Values from Fracture Strain to Engineering Strain,,,,,251
675,J86,10.1007/s10853-019-03567-9,NbTaWMoSi0.25,BCC + Silicide,M,SPS,,,567,C,25.0,1826,,16.5,10.5,,,,,,,,,,,251
676,J86,10.1007/s10853-019-03567-9,NbTaWMoSi0.5,BCC + Silicide,M,SPS,,,697,C,25.0,1883,,11,5.8,,,,,,,,,,,251
677,J86,10.1007/s10853-019-03567-9,NbTaWMoSi0.75,BCC + Silicide,M,SPS,,,682.6,C,25.0,2483,,6.2,1.6,,,,,,,,,,,251
678,J86,10.1007/s10853-019-03567-9,NbTaWMo,BCC,S,SPS,,,420,,200.0,,,,,,,,,,"Tests focused on HV, not mechanical stress",,,,,251
679,J86,10.1007/s10853-019-03567-9,NbTaWMoSi0.25,BCC + Silicide,M,SPS,,,425,,200.0,,,,,,,,,,,,,,,251
680,J86,10.1007/s10853-019-03567-9,NbTaWMoSi0.5,BCC + Silicide,M,SPS,,,535,,200.0,,,,,,,,,,,,,,,251
681,J86,10.1007/s10853-019-03567-9,NbTaWMoSi0.75,BCC + Silicide,M,SPS,,,640,,200.0,,,,,,,,,,,,,,,251
682,J86,10.1007/s10853-019-03567-9,NbTaWMo,BCC,S,SPS,,,425,,400.0,,,,,,,,,,,,,,,251
683,J86,10.1007/s10853-019-03567-9,NbTaWMoSi0.25,BCC + Silicide,M,SPS,,,420,,400.0,,,,,,,,,,,,,,,251
684,J86,10.1007/s10853-019-03567-9,NbTaWMoSi0.5,BCC + Silicide,M,SPS,,,560,,400.0,,,,,,,,,,,,,,,251
685,J86,10.1007/s10853-019-03567-9,NbTaWMoSi0.75,BCC + Silicide,M,SPS,,,600,,400.0,,,,,,,,,,,,,,,251
686,J86,10.1007/s10853-019-03567-9,NbTaWMo,BCC,S,SPS,,,340,,600.0,,,,,,,,,,,,,,,251
687,J86,10.1007/s10853-019-03567-9,NbTaWMoSi0.25,BCC + Silicide,M,SPS,,,425,,600.0,,,,,,,,,,,,,,,251
688,J86,10.1007/s10853-019-03567-9,NbTaWMoSi0.5,BCC + Silicide,M,SPS,,,540,,600.0,,,,,,,,,,,,,,,251
689,J86,10.1007/s10853-019-03567-9,NbTaWMoSi0.75,BCC + Silicide,M,SPS,,,650,,600.0,,,,,,,,,,,,,,,251
690,J86,10.1007/s10853-019-03567-9,NbTaWMo,BCC,S,SPS,,,335.5,,800.0,,,,,,,,,,,,,,,251
691,J86,10.1007/s10853-019-03567-9,NbTaWMoSi0.25,BCC + Silicide,M,SPS,,,399.2,,800.0,,,,,,,,,,,,,,,251
692,J86,10.1007/s10853-019-03567-9,NbTaWMoSi0.5,BCC + Silicide,M,SPS,,,550.5,,800.0,,,,,,,,,,,,,,,251
693,J86,10.1007/s10853-019-03567-9,NbTaWMoSi0.75,BCC + Silicide,M,SPS,,,597.3,,800.0,,,,,,,,,,,,,,,251
694,J86,10.1007/s10853-019-03567-9,NbTaWMoSi0.75,BCC + Silicide,M,SPS,,,,C,1200.0,960,,22.7,,,,,,,Added Engineering Values from Fig 5,,,,,251
695,J87,10.1007/s11661-019-05231-y,FeCoCrNiMn,FCC,S,CR,,,,T,25.0,1199.26,1335.35,4.37,,,,,,,,,,,,252
696,J87,10.1007/s11661-019-05231-y,FeCoCrNiMn,FCC,S,CR + A,,,,T,25.0,1269.23,1366.3,1.16,,,,,,,,,,,,252
697,J87,10.1007/s11661-019-05231-y,FeCoCrNiMn,FCC,S,CR + A,,,,T,25.0,1371.21,1402.83,1.58,,,,,,,,,,,,252
698,J87,10.1007/s11661-019-05231-y,FeCoCrNiMn,FCC,S,CR + A,0.166,,,T,25.0,1362.74,1471.05,3.15,,,,,,,,,,,,252
699,J87,10.1007/s11661-019-05231-y,FeCoCrNiMn,FCC,S,CR + A,0.248,,,T,25.0,1241.81,1325.25,4.31,,,,,,,,,,,,252
700,J87,10.1007/s11661-019-05231-y,FeCoCrNiMn,FCC,S,CR + A,0.468,,,T,25.0,930.3,1021.32,19.01,,,,,,,,,,,,252
701,J87,10.1007/s11661-019-05231-y,FeCoCrNiMn,FCC,S,CR + A,1.79,,,T,25.0,729.21,901.74,26.3,,,,,,,,,,,,252
702,J87,10.1007/s11661-019-05231-y,FeCoCrNiMn,FCC,S,CR + A,4.57,,,T,25.0,494.82,735.6,38.7,,,,,,,,,,,,252
703,J87,10.1007/s11661-019-05231-y,FeCoCrNiMn,FCC,S,CR + A,13.45,,,T,25.0,366.88,673.25,42.55,,,,,,,,,,,,252
704,J87,10.1007/s11661-019-05231-y,FeCoCrNiMn,FCC,S,CR + A,22.37,,,T,25.0,290.65,618.51,43.15,,,,,,,,,,,,252
705,J87,10.1007/s11661-019-05231-y,FeCoCrNiMn,FCC,S,CR + A,30.6,,,T,25.0,258.76,598.75,45.05,,,,,,,,,,,,252
706,J88,10.1016/j.vacuum.2019.04.043,FeCoCrNiMnTi0.1C0.1,FCC + TiMnO3 + M23C6 + M7C3,M,VHP,,,457 $\pm$ 2,C,25.0,1616 $\pm$ 27,,,4.5 $\pm$ 0.3,,,,,,Vacuum Hot Press Sintering,,,7.5,,253
707,J88,10.1016/j.vacuum.2019.04.043,FeCoCrNiMnTi0.1C0.1,FCC + TiMnO3 + M23C6 + M7C3,M,VHP,,,461 $\pm$ 3,C,25.0,1652 $\pm$ 16,,,10 $\pm$ 0.5,,,,,,Added HV and Density values from Table 2,,,7.64,,253
708,J88,10.1016/j.vacuum.2019.04.043,FeCoCrNiMnTi0.1C0.1,FCC + TiMnO3 + M23C6 + M7C3,M,VHP,,,428 $\pm$ 3,C,25.0,1490 $\pm$ 11,,,11.4 $\pm$ 0.5,,,,,,,,,7.66,,253
709,J88,10.1016/j.vacuum.2019.04.043,FeCoCrNiMnTi0.1C0.1,FCC + TiMnO3 + M23C6 + M7C3,M,VHP,,,378 $\pm$ 4,C,25.0,1194 $\pm$ 9,,,20.1 $\pm$ 0.7,,,,,,,,,7.69,,253
710,J90-32,10.1016/j.intermet.2012.03.005,CoCrFeNi,FCC,S,,,,,,,,,,,,,,,,"Large list, varied in data points",32.0,10.1016/j.intermet.2012.03.005,,,255
711,J90-32,10.1016/j.intermet.2012.03.005,CoCrFeNiAl0.5,FCC + BCC,M,,,,250,,,,,,,,,,,,come from a variety of references,32.0,10.1016/j.intermet.2012.03.005,,,255
712,J90-32,10.1016/j.intermet.2012.03.005,CoCrFeNiAl,BCC,S,,,,500,,,,,,,,,,,,,32.0,10.1016/j.intermet.2012.03.005,,,255
713,J90-32,10.1016/j.intermet.2012.03.005,CoCrFeNiAl2,BCC,S,,,,733,,,,,,,,,,,,,32.0,10.1016/j.intermet.2012.03.005,,,255
714,J90-35,10.1016/j.msea.2013.12.096,CoFeNiAl0.5Ti0.5,FCC + BCC,M,,,,733,,,,,,,,,,,,,35.0,10.1016/j.msea.2013.12.096,,,256
715,J90-35,10.1016/j.msea.2013.12.096,CrCoFeNiAl0.5Ti0.5,FCC + FCC,M,,,,640,,,,,,,,,,,,,35.0,10.1016/j.msea.2013.12.096,,,256
716,J90-36,10.4028/www.scientific.net/MSF.846.13,Al0.5FeCrNiMnCoTa0,,,,,,,,,,,,,,,,,,,36.0,10.4028/www.scientific.net/MSF.846.13,,,257
717,J90-36,10.4028/www.scientific.net/MSF.846.13,Al0.5FeCrNiMnCoTa0.2,FCC + BCC + laves,M,,,,385,,,,,,,,,,,,,36.0,10.4028/www.scientific.net/MSF.846.13,,,257
718,J90-36,10.4028/www.scientific.net/MSF.846.13,Al0.5FeCrNiMnCoTa0.4,FCC + BCC + laves,M,,,,486,,,,,,,,,,,,,36.0,10.4028/www.scientific.net/MSF.846.13,,,257
719,J90-36,10.4028/www.scientific.net/MSF.846.13,Al0.55FeCrNiMnCoTa0.6,FCC + BCC + laves + IM,M,,,,570,,,,,,,,,,,,,36.0,10.4028/www.scientific.net/MSF.846.13,,,257
720,J90-36,10.4028/www.scientific.net/MSF.846.13,FeCrNiMnCoTa0,FCC + BCC,M,,,,,,,,,,,,,,,,,36.0,10.4028/www.scientific.net/MSF.846.13,,,257
721,J90-36,10.4028/www.scientific.net/MSF.846.13,FeCrNiMnCoTa0.2,FCC + BCC,M,,,,200,,,,,,,,,,,,,36.0,10.4028/www.scientific.net/MSF.846.13,,,257
722,J90-36,10.4028/www.scientific.net/MSF.846.13,FeCrNiMnCoTa0.4,FCC + BCC,M,,,,290,,,,,,,,,,,,,36.0,10.4028/www.scientific.net/MSF.846.13,,,257
723,J90-36,10.4028/www.scientific.net/MSF.846.13,FeCrNiMnCoTa0.6,FCC + BCC,M,,,,345,,,,,,,,,,,,,36.0,10.4028/www.scientific.net/MSF.846.13,,,257
724,J90-39,10.1016/j.jallcom.2010.02.032,Al0.3CoCrFeNi,FCC,S,,,,160,,,,,,,,,,,,,39.0,10.1016/j.jallcom.2010.02.032,,,258
725,J90-39,10.1016/j.jallcom.2010.02.032,Al0.3CoCrFeNiMo0.1,FCC,S,,,,200,,,,,,,,,,,,,39.0,10.1016/j.jallcom.2010.02.032,,,258
726,J90,10.1016/j.msea.2019.05.056,Al5Cr12Fe35Mn28Ni20,FCC,S,AC,,,,T,25.0,280,556,48,48.2,,,,,,actually made by the paper,,This Paper,,,254
727,J90,10.1016/j.msea.2019.05.056,Al10Cr12Fe35Mn23Ni20,FCC,S,CR,,,,T,25.0,320,625,42.2,42.45,,,,,,,,This Paper,,,254
728,J90,10.1016/j.msea.2019.05.056,Al5Cr12Fe35Mn28Ni20,FCC,S,AC,,,,T,25.0,1253,1392,6.78,8.2,,,,,,,,This Paper,,,254
729,J90,10.1016/j.msea.2019.05.056,Al10Cr12Fe35Mn23Ni20,FCC,S,CR,,,,T,25.0,1400,1500,5.83,7.85,,,,,,,,This Paper,,,254
730,J91,10.1016/j.msea.2019.04.096,CoCuFeMnNi,FCC,S,AC,,,,,800.0,,,,,,,,,,,,,,,259
731,J91,10.1016/j.msea.2019.04.096,CoCuFeMnNi,FCC,S,AC,,,,,900.0,,,,,,,,,,,,,,,259
732,J91,10.1016/j.msea.2019.04.096,CoCuFeMnNi,FCC,S,AC,,,,,100.0,,,,,,,,,,,,,,,259
733,J92,10.1016/j.msea.2019.05.078,CoCrFeNiMo0.15,FCC,S,AC,,,,T,25.0,489 $\pm$ 2,895 $\pm$ 10,,53.6 $\pm$ 0.7,,,,,,,,,,,260
734,J92,10.1016/j.msea.2019.05.078,CoCrFeNiMo0.15,,,CR+A,,,,T,25.0,873 $\pm$ 27,,,23.4 $\pm$ 1.1,,,,,,CR,,,,,260
735,J92,10.1016/j.msea.2019.05.078,CoCrFeNiMo0.15,,,CR+A,,,,T,25.0,952 $\pm$ 35,1122 $\pm$ 17,,14.2 $\pm$ 0.5,,,,,,,,,,,260
736,J92,10.1016/j.msea.2019.05.078,CoCrFeNiMo0.15,FCC,S,CR+A,,,,T,25.0,1136 $\pm$ 3,1245 $\pm$ 0.8,,8.7 $\pm$ 0.7,,,,,,,,,,,260
737,J92,10.1016/j.msea.2019.05.078,CoCrFeNiMo0.15,FCC,S,CR+A,,,,T,25.0,1301 $\pm$ 28,1493 $\pm$ 30,,7.2 $\pm$ 0.5,,,,,,,,,,,260
738,J92,10.1016/j.msea.2019.05.078,CoCrFeNiMo0.15,,,CR+A,,,,T,25.0,1311 $\pm$ 14,1421 $\pm$ 27,,5.9 $\pm$ 0.3,,,,,,,,,,,260
739,J92,10.1016/j.msea.2019.05.078,CoCrFeNiMo0.15,,,CR+A,,,,T,25.0,1273 $\pm$ 16,1458 $\pm$ 28,,5.5 $\pm$ 0.4,,,,,,,,,,,260
740,J93,10.1016/j.msea.2019.05.003,CuNi1.01Si0.28Co0.14Cr0.45,,M,CR+A,,,142.5,T,25.0,777,810,3.4,,,,,,,added multiphase,,,,,261
741,J93,10.1016/j.msea.2019.05.003,CuNi1.01Si0.28Co0.14Cr0.45,,M,CR+A,,,147.4,,,,,,,,,,,,added multiphase,,,,,261
742,J93,10.1016/j.msea.2019.05.003,CuNi1.01Si0.28Co0.14Cr0.45,,M,CR+A,,,155.2,,,,,,,,,,,,added multiphase,,,,,261
743,J95,10.1038/s41467-019-10533-1,Co33W07Al33Nb24Cr03,,,AC,,,1084,,25.0,,,,,,,,,,,,,,,262
744,J95,10.1038/s41467-019-10533-1,Ti18Ni24Ta12Cr22Co24,,,AC,,,1011,,25.0,,,,,,,,,,,,,,,262
745,J95,10.1038/s41467-019-10533-1,Co6W9Al36Mo38Ni11,,,AC,,,725,,25.0,,,,,,,,,,,,,,,262
746,J95,10.1038/s41467-019-10533-1,Ni47Co02Ta12Ti9Nb30,,,AC,,,815,,25.0,,,,,,,,,,,,,,,262
747,J95,10.1038/s41467-019-10533-1,Ti44Ni02Nb21Cr21Co12,,,AC,,,422,,25.0,,,,,,,,,,,,,,,262
748,J95,10.1038/s41467-019-10533-1,Ti32Nb9Ta01Cr19Co39,,,AC,,,856,,25.0,,,,,,,,,,,,,,,262
749,J95,10.1038/s41467-019-10533-1,Ti39W04Nb31Ta04Co22,,,AC,,,277,,25.0,,,,,,,,,,,,,,,262
750,J98,10.1016/j.jmst.2018.12.014,AlCoCuFeNi0.5,FCC + BCC + B2,M,AC,,,430.9,C,25.0,929,,13.7,,,,,,,,,,,,263
751,J98,10.1016/j.jmst.2018.12.014,AlCoCuFeNi0.8,FCC + BCC + B2,M,AC,,,420,C,25.0,1021,,12.3,,,,,,,,,,,,263
752,J98,10.1016/j.jmst.2018.12.014,AlCoCuFeNi,FCC + BCC + B2,M,AC,,,391.4,C,25.0,994,,24.5,,,,,,,,,,,,263
753,J98,10.1016/j.jmst.2018.12.014,AlCoCuFeNi1.5,FCC + BCC + B2,M,AC,,,323.8,C,25.0,680,,35.9,,,,,,,,,,,,263
754,J98,10.1016/j.jmst.2018.12.014,AlCoCuFeNi2,FCC + BCC + B2,M,AC,,,299.2,C,25.0,544,,,,,,,,,,,,,,263
755,J98,10.1016/j.jmst.2018.12.014,AlCoCuFeNi3,FCC,S,AC,,,279.6,C,25.0,268,,,,,,,,,,,,,,263
756,J100,10.1016/j.msea.2019.04.104,Al0.5CrFeMnNi,BCC + B2,M,AC,,,353,C,25.0,1091,,50,,,,,,,,,,,,99
757,J100,10.1016/j.msea.2019.04.104,Al0.6CrFeMnNi,BCC + B2,M,AC,,,361,C,25.0,1130,,53,,,,,,,,,,,,99
758,J100,10.1016/j.msea.2019.04.104,Al0.7CrFeMnNi,BCC + B2,M,AC,,,375,C,25.0,1170,,55,,,,,,,,,,,,99
759,J100,10.1016/j.msea.2019.04.104,Al0.8CrFeMnNi,BCC + B2,M,AC,,,386,C,25.0,1200,,55,,,,,,,,,,,,99
760,J102,10.1016/j.jmmm.2019.01.096,FeCoNiCr0.2Si0.2,FCC,S,AC,,,130.1,T,25.0,225,732,61,,,,,,,,,,,,100
761,J102,10.1016/j.jmmm.2019.01.096,FeCoNiCr0.2Si0.2,FCC,S,HR,,,318.2,T,25.0,705,1070,10,,,,,,,changed processing to hot rolling,,,,,100
762,J102,10.1016/j.jmmm.2019.01.096,FeCoNiCr0.2Si0.2,FCC,S,HR + A,,,153.8,T,25.0,320,920,60,,,,,,,changed processing to hot rolling,,,,,100
763,J105,10.1038/s41598-019-43329-w,Al65Cu5Mg5Si15Zn5Fe5,FCC,S,AC,,,,C,25.0,422 $\pm$ 75,,1,,,88.7 $\pm$ 0.4,,,,,,,3.08,,101
764,J105,10.1038/s41598-019-43329-w,Al65Cu5Mg5Si15Zn5Ni5,FCC,S,AC,,,,C,25.0,534 $\pm$ 4,,1,,,107.8 $\pm$ 17,,,,,,,3.15,,101
765,J105,10.1038/s41598-019-43329-w,Al65Cu5Mg5Si15Zn5Cr5,FCC,S,AC,,,,C,25.0,490 $\pm$ 18,,6,,,78.4 $\pm$ 3,,,,,,,3.06,,101
766,J105,10.1038/s41598-019-43329-w,Al65Cu5Mg5Si15Zn5Mn5,FCC,S,AC,,,,C,25.0,622 $\pm$ 15,,2,,,114.1 $\pm$ 2,,,,,,,2.98,,101
767,J105,10.1038/s41598-019-43329-w,Al65Cu5Mg5Si15Zn5Zr5,FCC + Laves,M,AC,,,,C,25.0,565 $\pm$ 79,,4,,,105.1 $\pm$ 27,,,,,,,3.06,,101
768,J106,10.3390/e21050448,CoCrFeNiMo0.2,FCC,S,AC,,,,T,25.0,400,780,53,,,,,,,"For some reason, missing Yield Strength data",,,,,102
769,J106,10.3390/e21050448,CoCrFeNiMo0.2,FCC,S,A,,,,T,25.0,,838,43,,,,,,,,,,,,102
770,J106,10.3390/e21050448,CoCrFeNiMo0.2,FCC,S,A,,,,T,25.0,,899,31,,,,,,,,,,,,102
771,J106,10.3390/e21050448,CoCrFeNiMo0.2,FCC,S,A,,,,T,25.0,,902,29,,,,,,,,,,,,102
772,J106,10.3390/e21050448,CoCrFeNiMo0.2,FCC,S,A,,,,T,25.0,,811,52,,,,,,,,,,,,102
773,J106,10.3390/e21050448,CoCrFeNiMo0.2,FCC,S,A,,,,T,25.0,,790,49,,,,,,,,,,,,102
774,J106,10.3390/e21050448,CoCrFeNiMo0.2,FCC,S,A,,,,T,25.0,,799,47,,,,,,,,,,,,102
775,J106,10.3390/e21050448,CoCrFeNiMo0.2,FCC,S,A,,,,T,25.0,,802,37,,,,,,,,,,,,102
776,J106,10.3390/e21050448,CoCrFeNiMo0.2,FCC,S,A,,,,T,25.0,,823,36,,,,,,,,,,,,102
777,J106,10.3390/e21050448,CoCrFeNiMo0.2,FCC,S,A,,,,T,25.0,,849,34,,,,,,,,,,,,102
778,J106,10.3390/e21050448,CoCrFeNiMo0.2,FCC,S,A,,,,T,25.0,,895,32,,,,,,,,,,,,102
779,J107,10.3390/ma12071136,Al19.9Li30Mg35Si10Ca5Y0.1,,M,AC,,,,C,25.0,556,,3,,,,,,,changed to multiphase,,,1.7,,103
780,J107,10.3390/ma12071136,Al15Li35Mg35Ca10Si5,,M,AC,,,,C,25.0,418,,13,,,,,,,changed to multiphase,,,1.57,,103
781,J107,10.3390/ma12071136,Al15Li38Mg48Ca1 Si1,,M,AC,,,,C,25.0,360,,9,,,,,,,corrected the name; changed to multiphase,,,1.52,,103
782,J107,10.3390/ma12071136,Al15Li38Mg45Ca0.5Si1.5,,M,AC,,,,C,25.0,342,,44,,,,,,,changed to multiphase,,,1.5,,103
783,J107,10.3390/ma12071136,Al15Li39Mg45Ca0.5Si0.5,,M,AC,,,,C,25.0,300,,63,,,,,,,changed to multiphase,,,1.46,,103
784,J109,10.3390/e21030288,CoCrFeNiPd,FCC,S,AC,,,295,,,,,,,,,,,,,,,,,104
785,J109,10.3390/e21030288,CoCrFeNiPdMn0.2,FCC + IM,M,AC,,,470,C,25.0,650,,50,,,,,,,changed to multiphase,,,,,104
786,J109,10.3390/e21030288,CoCrFeNiPdMn0.4,FCC + IM,M,AC,,,380,C,25.0,650,,46,,,,,,,changed to multiphase,,,,,104
787,J109,10.3390/e21030288,CoCrFeNiPdMn0.6,FCC + IM,M,AC,,,180,C,25.0,650,,42,,,,,,,changed to multiphase,,,,,104
788,J109,10.3390/e21030288,CoCrFeNiPdMn0.8,FCC + IM,M,AC,,,160,C,25.0,650,,35,,,,,,,changed to multiphase,,,,,104
789,J110,10.1016/j.scriptamat.2018.12.021,Al0.3CoCrFeMnNi,,,SPS,,,,,,,,,,,,,,,Skipped,,,,,106
790,J111,10.1557/jmr.2019.40,CrFeNiTi0.2,BCC + FCC,M,AC,,,362.2,C,25.0,2297.94,,5.8,,,,,,,,,,,,107
791,J111,10.1557/jmr.2019.40,CrFeNiTi0.3,BCC + FCC,M,AC,,,510.3,C,25.0,2364.63,,,,,,,,,corrected elongations,,,,,107
792,J111,10.1557/jmr.2019.40,CrFeNiTi0.4,BCC,S,AC,,,600.3,C,25.0,2475.41,,6.5,,,,,,,corrected elongations,,,,,107
793,J111,10.1557/jmr.2019.40,CrFeNiTi0.5,BCC,S,AC,,,709.6,C,25.0,2380.79,,,,,,,,,corrected elongations,,,,,107
794,J111,10.1557/jmr.2019.40,CrFeNiTi0.6,BCC,S,AC,,,718.2,C,25.0,1923.15,,,,,,,,,corrected elongations,,,,,107
795,J112,10.1557/jmr.2019.18,AlCuCrFeMn,sigma + FeMn,M,SPS,,,633,C,25.0,1010,,,,,,,,,fixed strength,,,,,108
796,J112,10.1557/jmr.2019.18,AlCuCrFeMnW0.05,BCC + sigma + FeMn,M,SPS,,,680,C,25.0,1120,,,,,,,,,fixed strength,,,,,108
797,J112,10.1557/jmr.2019.18,AlCuCrFeMnW0.1,BCC + sigma + FeMn,M,SPS,,,705,C,25.0,1250,,,,,,,,,fixed strength,,,,,108