,REFERENCE: tag,REFERENCE: doi,FORMULA,PROPERTY: Type of phases,PROPERTY: Single/Multiphase,PROPERTY: synthesis method,PROPERTY: grain size ($\mu$m),PROPERTY: ROM Density (g/cm$^3$),PROPERTY: HV,PROPERTY: Type of test,PROPERTY: Test temperature ($^\circ$C),PROPERTY: YS (MPa),PROPERTY: UTS (MPa),PROPERTY: Elongation (%),PROPERTY: Elongation plastic (%),PROPERTY: Young modulus (GPa),PROPERTY: O content (wppm),PROPERTY: N content (wppm),PROPERTY: C content (wppm),REFERENCE: comment,"Internal Reference # (J4, J90)","J4, J90 Original DOI",PROPERTY: Exp. Density (g/cm$^3$),Unnamed: 22,IDENTIFIER: Reference ID
366,74,10.1016/j.matdes.2015.06.072,Mo0.3NbTiVZr,BCC,S,A,,6.7,,C,25.0,1289.0,,,42.0,,,,,not obvious which are annealed vs. as-cast; plastic strain ,,,,,58
367,74,10.1016/j.matdes.2015.06.072,Mo0.5NbTiVZr,BCC,S,A,,6.8,,C,25.0,1473.0,,,32.0,,,,,,,,,,58
368,74,10.1016/j.matdes.2015.06.072,Mo0.7NbTiVZr,BCC,S,A,,7.0,,C,25.0,1706.0,,,32.0,,,,,,,,,,58
369,74,10.1016/j.matdes.2015.06.072,Mo1.3NbTiVZr,BCC,S,A,,7.3,,C,25.0,1496.0,,,30.0,,,,,,,,,,58
370,74,10.1016/j.matdes.2015.06.072,Mo1.5NbTiVZr,BCC,S,A,,7.4,,C,25.0,1603.0,,,20.0,,,,,,,,,,58
371,74,10.1016/j.matdes.2015.06.072,Mo1.7NbTiVZr,BCC,S,A,,7.5,,C,25.0,1645.0,,,15.0,,,,,,,,,,58
372,74,10.1016/j.matdes.2015.06.072,Mo2NbTiVZr,BCC,S,A,,7.6,,C,25.0,1765.0,,,12.0,,,,,,,,,,58
373,74,10.1016/j.matdes.2015.06.072,MoNbTiVZr,BCC,S,A,,7.1,,C,25.0,1779.0,,,32.0,,,,,,,,,,58
374,74,10.1016/j.matdes.2015.06.072,NbTiV0.3MoZr,BCC,S,A,,7.3,,C,25.0,1455.0,,,25.0,,,,,,,,,,58
375,74,10.1016/j.matdes.2015.06.072,NbTiV0.3Mo0.1Zr,BCC,S,A,,6.6,,C,25.0,932.0,,,45.0,,,,,,,,,,58
376,74,10.1016/j.matdes.2015.06.072,NbTiV0.3Mo0.3Zr,BCC,S,A,,6.8,,C,25.0,1312.0,,,50.0,,,,,,,,,,58
377,74,10.1016/j.matdes.2015.06.072,NbTiV0.3Mo0.5Zr,BCC,S,A,,6.9,,C,25.0,1301.0,,,43.0,,,,,,,,,,58
378,74,10.1016/j.matdes.2015.06.072,NbTiV0.3Mo0.7Zr,BCC,S,A,,7.1,,C,25.0,1436.0,,,27.0,,,,,,,,,,58
379,74,10.1016/j.matdes.2015.06.072,NbTiV0.3Mo1.3Zr,BCC,S,A,,7.4,,C,25.0,1603.0,,,20.0,,,,,,,,,,58
380,74,10.1016/j.matdes.2015.06.072,NbTiV0.3Mo1.5Zr,BCC,S,A,,7.5,,C,25.0,1576.0,,,8.0,,,,,,,,,,58
381,74,10.1016/j.matdes.2015.06.072,NbTiV0.3Zr,BCC,S,A,,6.5,,C,25.0,866.0,,,45.0,,,,,,,,,,58
382,74,10.1016/j.matdes.2015.06.072,NbTiVZr,BCC,S,A,,6.5,,C,25.0,1104.0,,,50.0,,,,,,,,,,58
383,75,10.1007/s11837-012-0366-5,MoNbTiV0.25Zr,BCC,S,AC,,7.3,,C,25.0,1776.0,3893.0,30,,153.0,,,,bridgeman solidfication,,,,,59
384,75,10.1007/s11837-012-0366-5,MoNbTiV0.50Zr,BCC,S,AC,,7.2,,C,25.0,1647.0,3307.0,28,,152.0,,,,bridgeman solidfication,,,,,59
385,75,10.1007/s11837-012-0366-5,MoNbTiV0.75Zr,BCC,S,AC,,7.2,,C,25.0,1708.0,3929.0,29,,150.0,,,,bridgeman solidfication,,,,,59
386,75,10.1007/s11837-012-0366-5,MoNbTiV1.0Zr,BCC,S,AC,,7.1,,C,25.0,1786.0,3828.0,26,,149.0,,,,bridgeman solidfication,,,,,59
387,75,10.1007/s11837-012-0366-5,MoNbTiV1.5Zr,BCC,S,AC,,7.1,,C,25.0,1735.0,3300.0,20,,147.0,,,,bridgeman solidfication,,,,,59
388,75,10.1007/s11837-012-0366-5,MoNbTiV2.0Zr,BCC,S,AC,,7.0,,C,25.0,1538.0,3176.0,23,,146.0,,,,bridgeman solidfication,,,,,59
389,75,10.1007/s11837-012-0366-5,MoNbTiV3.0Zr,BCC,S,AC,,6.9,,C,25.0,1418.0,2508.0,24,,143.0,,,,bridgeman solidfication,,,,,59
390,75,10.1007/s11837-012-0366-5,MoNbTiZr,BCC,S,AC,,7.3,,C,25.0,1592.0,3450.0,34,,155.0,,,,bridgeman solidfication,,,,,59
391,77,10.1016/j.jallcom.2015.07.185,CoFeMo0.2NiV,FCC+Im,M,AC,,8.0,267,,25.0,,,,,,,,,,,,,,60
392,77,10.1016/j.jallcom.2015.07.185,CoFeMo0.4NiV,FCC+Im,M,AC,,8.1,402,,25.0,,,,,,,,,,,,,,60
393,77,10.1016/j.jallcom.2015.07.185,CoFeMo0.6NiV,FCC+Im,M,AC,,8.2,557,,25.0,,,,,,,,,,,,,,60
394,77,10.1016/j.jallcom.2015.07.185,CoFeMo0.8NiV,FCC+Im,M,AC,,8.3,606,,25.0,,,,,,,,,,,,,,60
395,77,10.1016/j.jallcom.2015.07.185,CoFeMoNi1.2V,FCC+Im,M,AC,,8.4,602,,25.0,,,,,,,,,,,,,,60
396,77,10.1016/j.jallcom.2015.07.185,CoFeMoNi1.4V,FCC+Im,M,AC,,8.5,538,,25.0,,,,,,,,,,,,,,60
397,77,10.1016/j.jallcom.2015.07.185,CoFeMoNi1.6V,FCC+Im,M,AC,,8.5,520,,25.0,,,,,,,,,,,,,,60
398,77,10.1016/j.jallcom.2015.07.185,CoFeMoNi1.8V,FCC+Im,M,AC,,8.5,510,,25.0,,,,,,,,,,,,,,60
399,77,10.1016/j.jallcom.2015.07.185,CoFeMoNi2V,FCC+Im,M,AC,,8.5,382,,25.0,,,,,,,,,,,,,,60
400,77,10.1016/j.jallcom.2015.07.185,CoFeMoNiV,FCC+Im,M,AC,,8.4,625,,25.0,,,,,,,,,,,,,,60
401,77,10.1016/j.jallcom.2015.07.185,CoFeNiV,FCC,S,AC,,7.8,238,,25.0,,,,,187.0,,,,,,,,,60
402,78,10.1016/j.msea.2006.11.049,Al11.1(CoCrCuFeMnNiTiV)88.9,FCC+BCC,M,AC,,6.7,,C,25.0,1862.0,2431.0,< 1,,164.0,,,,,,,,,61
403,78,10.1016/j.msea.2006.11.049,Al20(CoCrCuFeMnNiTiV)80,BCC,S,AC,,6.1,,C,25.0,1465.0,2016.0,2,,190.0,,,,,,,,,61
404,78,10.1016/j.msea.2006.11.049,Al40(CoCrCuFeMnNiTiV)60,BCC+Al3Ti,M,AC,,5.1,,C,25.0,1461.0,1461.0,< 1,,163.0,,,,,,,,,61
405,78,10.1016/j.msea.2006.11.049,CoCrCuFeMnNiTiV,FCC+BCC+omega,M,AC,,7.3,,C,25.0,1312.0,1312.0,< 1,,74.0,,,,,,,,,61
406,79,10.1016/j.jallcom.2015.07.285,(CuMnNi)75Zn25,FCC,S,AC,,8.3,147,C,25.0,215.0,,>60,,169.0,,,,,,,,,62
407,79,10.1016/j.jallcom.2015.07.285,(CuMnNi)80Zn20,FCC,S,AC,,8.3,109,C,25.0,140.0,,>65,,171.0,,,,,,,,,62
408,79,10.1016/j.jallcom.2015.07.285,(CuMnNi)90Al10,FCC+Im,M,AC,,8.1,241,C,25.0,515.0,,40,,,,,,,,,,,62
409,79,10.1016/j.jallcom.2015.07.285,(CuMnNi)90Sn10,FCC+heusler,M,AC,,8.3,318,C,25.0,630.0,,20,,,,,,,,,,,62
410,79,10.1016/j.jallcom.2015.07.285,(CuMnNi)95Al5,FCC,S,AC,,8.3,166,C,25.0,330.0,,>45,,174.0,,,,,,,,,62
411,79,10.1016/j.jallcom.2015.07.285,(CuMnNi)95Sn5,FCC+heusler,M,AC,,8.4,205,C,25.0,380.0,,>63,,,,,,,,,,,62
412,80,10.1007/s11661-005-0218-9,Al0.5CoCrCuFeNi,FCC,S,AC,,7.9,,C,1000.0,150.0,,,,,,,,,,,,,64
413,80,10.1007/s11661-005-0218-9,Al0.5CoCrCuFeNi,FCC,S,AC,,7.9,,C,25.0,388.0,,,,,,,,,,,,,64
414,80,10.1007/s11661-005-0218-9,Al0.5CoCrCuFeNi,FCC,S,AC,,7.9,,C,300.0,411.0,,,,,,,,,,,,,64
415,80,10.1007/s11661-005-0218-9,Al0.5CoCrCuFeNi,FCC,S,AC,,7.9,,C,500.0,421.0,,,,,,,,,,,,,64
416,80,10.1007/s11661-005-0218-9,Al0.5CoCrCuFeNi,FCC,S,AC,,7.9,,C,700.0,426.0,,,,,,,,,,,,,64
417,80,10.1007/s11661-005-0218-9,Al0.5CoCrCuFeNi,FCC,S,AC,,7.9,,C,900.0,230.0,,,,,,,,,,,,,64
418,80,10.1007/s11661-005-0218-9,Al0.5CoCrCuFeNi,FCC,S,AC,,7.9,,C,1100.0,80.0,,,,,,,,,,,,,64
419,80,10.1007/s11661-005-0218-9,Al2CoCrCuFeNi,BCC,S,AC,,6.7,,C,1000.0,116.0,,,,,,,,,,,,,64
420,80,10.1007/s11661-005-0218-9,Al2CoCrCuFeNi,BCC,S,AC,,6.7,,C,1100.0,79.0,,,,,,,,,,,,,64
421,80,10.1007/s11661-005-0218-9,Al2CoCrCuFeNi,BCC,S,AC,,6.7,,C,25.0,1620.0,,,,,,,,,,,,,64
422,80,10.1007/s11661-005-0218-9,Al2CoCrCuFeNi,BCC,S,AC,,6.7,,C,600.0,805.0,,,,,,,,,,,,,64
423,80,10.1007/s11661-005-0218-9,Al2CoCrCuFeNi,BCC,S,AC,,6.7,,C,500.0,1120.0,,,,,,,,,,,,,64
424,80,10.1007/s11661-005-0218-9,Al2CoCrCuFeNi,BCC,S,AC,,6.7,,C,700.0,567.0,,,,,,,,,,,,,64
425,80,10.1007/s11661-005-0218-9,Al2CoCrCuFeNi,BCC,S,AC,,6.7,,C,900.0,214.0,,,,,,,,,,,,,64
426,80,10.1007/s11661-005-0218-9,Al2CoCrCuFeNi,BCC,S,AC,,6.7,,C,800.0,302.0,,,,,,,,,,,,,64
427,80,10.1007/s11661-005-0218-9,AlCoCrCuFeNi,FCC+BCC,M,AC,,7.4,,C,1000.0,47.0,,,,,,,,,,,,,64
428,80,10.1007/s11661-005-0218-9,AlCoCrCuFeNi,FCC+BCC,M,AC,,7.4,,C,25.0,948.0,,,,,,,,,,,,,64
429,80,10.1007/s11661-005-0218-9,AlCoCrCuFeNi,FCC+BCC,M,AC,,7.4,,C,600.0,561.0,,,,,,,,,,,,,64
430,80,10.1007/s11661-005-0218-9,AlCoCrCuFeNi,FCC+BCC,M,AC,,7.4,,C,700.0,307.0,,,,,,,,,,,,,64
431,80,10.1007/s11661-005-0218-9,AlCoCrCuFeNi,FCC+BCC,M,AC,,7.4,,C,800.0,172.0,,,,,,,,,,,,,64
432,80,10.1007/s11661-005-0218-9,AlCoCrCuFeNi,FCC+BCC,M,AC,,7.4,,C,900.0,98.0,,,,,,,,,,,,,64
433,81,10.1016/j.jallcom.2015.11.050,AlCrMoNbTi,BCC,S,AC,,6.6,,C,25.0,,,,,,92.0,undetectable,,,,,,,65
434,81,10.1016/j.jallcom.2015.11.050,AlCrMoNbTi,BCC,S,AC,,6.6,,C,400.0,1080.0,1100.0,0.02,,,92.0,undetectable,,,,,,,65
435,81,10.1016/j.jallcom.2015.11.050,AlCrMoNbTi,BCC,S,AC,,6.6,,C,600.0,1060.0,1170.0,0.025,,,92.0,undetectable,,,,,,,65
436,81,10.1016/j.jallcom.2015.11.050,AlCrMoNbTi,BCC,S,AC,,6.6,,C,800.0,860.0,1000.0,0.02,,,92.0,undetectable,,,,,,,65
437,81,10.1016/j.jallcom.2015.11.050,AlCrMoNbTi,BCC,S,AC,,6.6,,C,1000.0,594.0,630.0,0.15,,,92.0,undetectable,,,,,,,65
438,81,10.1016/j.jallcom.2015.11.050,AlCrMoNbTi,BCC,S,AC,,6.6,,C,1200.0,105.0,116.0,0.24,,,92.0,undetectable,,,,,,,65
439,Couzinie_11,10.1007/s11661-017-4386-1,AlCrMoNbTi,BCC,S,A,,6.6,,C,600.0,930.0,,,,,92.0,undetectable,,,,,,,67
440,Couzinie_11,10.1007/s11661-017-4386-1,AlCrMoNbTi,BCC,S,A,,6.6,,C,800.0,875.0,,,,,,,,,,,,,67
441,Couzinie_11,10.1007/s11661-017-4386-1,AlCrMoNbTi,BCC,S,A,,6.6,,C,1000.0,550.0,,,,,,,,,,,,,67
442,Couzinie_11,10.1007/s11661-017-4386-1,AlCrMoNbTi,BCC,S,A,,6.6,,C,1200.0,150.0,,,,,,,,,,,,,67
443,Couzinie_11,10.1007/s11661-017-4386-1,AlCrMoTi,BCC,S,A,,6.0,,C,400.0,1070.0,,,,,,,,,,,,,67
444,Couzinie_11,10.1007/s11661-017-4386-1,AlCrMoTi,BCC,S,A,,6.0,,C,600.0,1020.0,,,,,,,,,,,,,67
445,Couzinie_11,10.1007/s11661-017-4386-1,AlCrMoTi,BCC,S,A,,6.0,,C,800.0,875.0,,,,,,,,,,,,,67
446,Couzinie_11,10.1007/s11661-017-4386-1,AlCrMoTi,BCC,S,A,,6.0,,C,1000.0,375.0,,,,,,,,,,,,,67
447,Couzinie_11,10.1007/s11661-017-4386-1,AlCrMoTi,BCC,S,A,,6.0,,C,1200.0,100.0,,,,,,,,,,,,,67
448,Couzinie_11,10.1007/s11661-017-4386-1,AlMoNbTi,BCC,S,A,,6.5,,C,600.0,520.0,,,,,,,,,,,,,67
449,Couzinie_11,10.1007/s11661-017-4386-1,AlMoNbTi,BCC,S,A,,6.5,,C,800.0,500.0,,,,,,,,,,,,,67
450,Couzinie_11,10.1007/s11661-017-4386-1,AlMoNbTi,BCC,S,A,,6.5,,C,1000.0,540.0,,,,,,,,,,,,,67
451,Couzinie_11,10.1007/s11661-017-4386-1,AlMoNbTi,BCC,S,A,,6.5,,C,1200.0,200.0,,,,,,,,,,,,,67
452,Couzinie_14,10.1016/j.msea.2017.08.019,AlNbTiV,B2,S,A,,5.5,,C,600.0,780.0,1005.0,,,,,,,,,,,,68
453,Couzinie_14,10.1016/j.msea.2017.08.019,AlNbTiV,B2,S,A,,5.5,,C,800.0,560.0,700.0,,,,,,,,,,,,68
454,Couzinie_14,10.1016/j.msea.2017.08.019,AlNbTiV,B2,S,A,,5.5,,C,25.0,1000.0,1280.0,,,,,,,,,,,,68
455,Couzinie_14,10.1016/j.msea.2017.08.019,AlNbTiVZr,B2+Al3Zr5+Laves,M,A,,5.7,,C,600.0,1155.0,1385.0,,,,,,,,,,,,68
456,Couzinie_14,10.1016/j.msea.2017.08.019,AlNbTiVZr,B2+Al3Zr5+Laves,M,A,,5.7,,C,800.0,550.0,600.0,,,,,,,,,,,,68
457,Couzinie_14,10.1016/j.msea.2017.08.019,AlNbTiVZr,B2+Al3Zr5+Laves,M,A,,5.7,,C,25.0,1500.0,1675.0,,,,,,,,,,,,68
458,Couzinie_14,10.1016/j.msea.2017.08.019,AlNbTiVZr0.1,B2+Al3Zr5,M,A,,5.5,,C,600.0,975.0,1085.0,,,,,,,,,,,,68
459,Couzinie_14,10.1016/j.msea.2017.08.019,AlNbTiVZr0.1,B2+Al3Zr5,M,A,,5.5,,C,800.0,865.0,920.0,,,,,,,,,,,,68
460,Couzinie_14,10.1016/j.msea.2017.08.019,AlNbTiVZr0.1,B2+Al3Zr5,M,A,,5.5,,C,25.0,1290.0,1395.0,,,,,,,,,,,,68
461,Couzinie_14,10.1016/j.msea.2017.08.019,AlNbTiVZr0.25,B2+Al3Zr5,M,A,,5.6,,C,600.0,1065.0,1260.0,,,,,,,,,,,,68
462,Couzinie_14,10.1016/j.msea.2017.08.019,AlNbTiVZr0.25,B2+Al3Zr5,M,A,,5.6,,C,800.0,855.0,865.0,,,,,,,,,,,,68
463,Couzinie_14,10.1016/j.msea.2017.08.019,AlNbTiVZr0.25,B2+Al3Zr5,M,A,,5.6,,C,25.0,1360.0,1480.0,,,,,,,,,,,,68
464,Couzinie_14,10.1016/j.msea.2017.08.019,AlNbTiVZr0.5,B2+Al3Zr5+Laves,M,A,,5.6,,C,600.0,1135.0,1425.0,,,,,,,,,,,,68
465,Couzinie_14,10.1016/j.msea.2017.08.019,AlNbTiVZr0.5,B2+Al3Zr5+Laves,M,A,,5.6,,C,800.0,675.0,740.0,,,,,,,,,,,,68
466,Couzinie_14,10.1016/j.msea.2017.08.019,AlNbTiVZr0.5,B2+Al3Zr5+Laves,M,A,,5.6,,C,25.0,1485.0,,,,,,,,,,,,,68
467,Couzinie_14,10.1016/j.msea.2017.08.019,AlNbTiVZr1.5,B2+Al3Zr5+Laves,M,A,,5.8,,C,600.0,1195.0,1195.0,,,,,,,,,,,,68
468,Couzinie_14,10.1016/j.msea.2017.08.019,AlNbTiVZr1.5,B2+Al3Zr5+Laves,M,A,,5.8,,C,800.0,180.0,395.0,,,,,,,,,,,,68
469,Couzinie_14,10.1016/j.msea.2017.08.019,AlNbTiVZr1.5,B2+Al3Zr5+Laves,M,A,,5.8,,C,25.0,1535.0,1550.0,,,,,,,,,,,,68
470,Couzinie_16,10.1007/s11665-017-2799-z,CoCrMoNb,BCC+Laves,M,AC,,8.8,,C,25.0,,1419.6,,,,,,,,,,,,69
471,Couzinie_16,10.1007/s11665-017-2799-z,CoCrMoNbTi,BCC+Laves,M,AC,,7.8,,C,25.0,,1096.8,,,,,,,,,,,,69
472,Couzinie_16,10.1007/s11665-017-2799-z,CoCrMoNbTi0.2,BCC+Laves,M,AC,,8.5,,C,25.0,,1905.6,,,,,,,,,,,,69
473,Couzinie_16,10.1007/s11665-017-2799-z,CoCrMoNbTi0.4,BCC,S,AC,,8.3,,C,25.0,,1771.3,,,220.1,,,,,,,,,69
474,Couzinie_16,10.1007/s11665-017-2799-z,CoCrMoNbTi0.5,BCC+Laves,M,AC,,8.2,,C,25.0,,1609.2,,,,,,,,,,,,69
475,Couzinie_17,10.1016/j.ijrmhm.2014.07.009,CrHfNbTiZr,BCC+Laves,M,A,,8.2,,C,25.0,1457.0,1908.0,,,,,,,,,,,,70
476,Couzinie_17,10.1016/j.ijrmhm.2014.07.009,CrHfNbTiZr,BCC+Laves,M,A,,8.2,,C,25.0,1420.0,1885.0,4.2,,,,,,,,,,,70
477,Couzinie_17,10.1016/j.ijrmhm.2014.07.009,CrHfNbTiZr,BCC+Laves,M,A,,8.2,,C,25.0,1328.0,1884.0,,,,,,,,,,,,70
478,Couzinie_17,10.1016/j.ijrmhm.2014.07.009,CrHfNbTiZr,BCC+Laves,M,A,,8.2,,C,25.0,1322.0,1726.0,,,,,,,,,,,,70
479,Couzinie_17,10.1016/j.ijrmhm.2014.07.009,CrHfNbTiZr,BCC+Laves,M,AC,,8.2,,C,25.0,1375.0,2130.0,3,,,,,,,,,,,70
480,Couzinie_17,10.1016/j.ijrmhm.2014.07.009,HfNbTiVZr,BCC+Laves,M,A,,8.0,,C,25.0,1157.0,1468.0,,,,,,,,,,,,70
481,Couzinie_17,10.1016/j.ijrmhm.2014.07.009,HfNbTiVZr,BCC,S,A,,8.0,,C,25.0,1253.0,1393.0,,,99.0,,,,,,,,,70
482,Couzinie_17,10.1016/j.ijrmhm.2014.07.009,HfNbTiVZr,BCC,S,A,,8.0,,C,25.0,1140.0,1463.0,,,99.0,,,,,,,,,70
483,Couzinie_17,10.1016/j.ijrmhm.2014.07.009,HfNbTiVZr,BCC,S,A,,8.0,,C,25.0,1120.0,1376.0,30,,99.0,,,,,,,,,70
484,Couzinie_17,10.1016/j.ijrmhm.2014.07.009,HfNbTiVZr,BCC+Laves,M,AC,,8.0,,C,25.0,1170.0,1463.0,29.6,,,,,,,,,,,70
485,Couzinie_20,10.1016/j.matchemphys.2017.06.054,CrTaTi0.17VW,BCC+Laves,M,SPS,,12.5,715,C,25.0,2034.0,,1-2,,,,,,"Jasper: Added HV values from Fig 5, corrected alloy formula to reflect what is stated in the article",,,,,71
486,Couzinie_20,10.1016/j.matchemphys.2017.06.054,CrTaTi0.17VW,BCC+Laves,M,SPS,,12.5,,C,1200.0,750.0,,1-2,,,,,,,,,,,71
487,Couzinie_20,10.1016/j.matchemphys.2017.06.054,CrTaTi0.3VW,BCC+Laves,M,SPS,,12.2,780,C,25.0,2050.0,,1-2,,,,,,,,,,,71
488,Couzinie_20,10.1016/j.matchemphys.2017.06.054,CrTaTi0.3VW,BCC+Laves,M,SPS,,12.2,,C,1200.0,586.0,,1-2,,,,,,,,,,,71
489,Couzinie_20,10.1016/j.matchemphys.2017.06.054,CrTaVW,BCC+Laves,M,SPS,,12.9,715,C,25.0,2327.0,,1-2,,,,,,,,,,,71
490,Couzinie_20,10.1016/j.matchemphys.2017.06.054,CrTaVW,BCC+Laves,M,SPS,,12.9,,C,1200.0,979.0,,1-2,,,,,,,,,,,71
491,Couzinie_21,10.1080/14786435.2015.1028506,Hf0.4Nb1.54Ta1.54Ti0.89Zr0.64,BCC,S,AC,,10.4,,C,60.0,795.0,,,,125.0,,,,,,,,,72
492,Couzinie_21,10.1080/14786435.2015.1028506,Hf0.4Nb1.54Ta1.54Ti0.89Zr0.64,BCC,S,AC,,10.4,,C,100.0,765.0,,,,,,,,,,,,,72
493,Couzinie_21,10.1080/14786435.2015.1028506,Hf0.4Nb1.54Ta1.54Ti0.89Zr0.64,BCC,S,AC,,10.4,,C,200.0,650.0,,,,,,,,,,,,,72
494,Couzinie_21,10.1080/14786435.2015.1028506,Hf0.4Nb1.54Ta1.54Ti0.89Zr0.64,BCC,S,AC,,10.4,,C,300.0,590.0,,,,,,,,,,,,,72
495,Couzinie_21,10.1080/14786435.2015.1028506,Hf0.4Nb1.54Ta1.54Ti0.89Zr0.64,BCC,S,AC,,10.4,,C,25.0,845.0,,,,,,,,,,,,,72
496,Couzinie_22,10.1016/j.jallcom.2015.11.091,Hf0.5Mo0.5NbSi0.1TiZr,BCC+laves,M,AC,,7.7,442,C,25.0,1350.0,2150.0,,28.0,,,,,,,,,,73
497,Couzinie_22,10.1016/j.jallcom.2015.11.091,Hf0.5Mo0.5NbSi0.3TiZr,BCC+laves,M,AC,,7.5,494,C,25.0,1370.0,1950.0,,23.0,,,,,,,,,,73
498,Couzinie_22,10.1016/j.jallcom.2015.11.091,Hf0.5Mo0.5NbSi0.5TiZr,BCC+laves,M,AC,,7.2,524,C,25.0,1600.0,1900.0,,23.0,,,,,,,,,,73
499,Couzinie_22,10.1016/j.jallcom.2015.11.091,Hf0.5Mo0.5NbSi0.7TiZr,BCC+laves,M,AC,,7.0,580,C,25.0,1550.0,1900.0,,12.0,,,,,,,,,,73
500,Couzinie_22,10.1016/j.jallcom.2015.11.091,Hf0.5Mo0.5NbSi0.9TiZr,BCC+laves,M,AC,,6.8,640,C,25.0,1650.0,2000.0,,9.0,,,,,,,,,,73
501,Couzinie_22,10.1016/j.jallcom.2015.11.091,Hf0.5Mo0.5NbTiZr,BCC+laves,S,AC,,7.9,400,C,25.0,1150.0,1500.0,,25.0,123.1,,,,,,,,,73
502,Couzinie_24,10.1016/j.msea.2017.10.073,Hf0.75NbTa0.5Ti1.5Zr1.25,BCC,S,CR,,8.4,,C,-268.8,2250.0,,,,103.1,,,,,,,,,74
503,Couzinie_24,10.1016/j.msea.2017.10.073,Hf0.75NbTa0.5Ti1.5Zr1.25,BCC,S,CR,,8.4,,C,-268.8,2210.0,,,,103.1,,,,,,,,,74
504,Couzinie_24,10.1016/j.msea.2017.10.073,Hf0.75NbTa0.5Ti1.5Zr1.25,BCC,S,CR,,8.4,,C,-196.0,1880.0,,,,,,,,,,,,,74
505,Couzinie_24,10.1016/j.msea.2017.10.073,Hf0.75NbTa0.5Ti1.5Zr1.25,BCC,S,CR,,8.4,,C,-196.0,1750.0,,,,,,,,,,,,,74
506,Couzinie_24,10.1016/j.msea.2017.10.073,Hf0.75NbTa0.5Ti1.5Zr1.25,BCC,S,CR,,8.4,,C,-153.0,1640.0,,,,,,,,,,,,,74
507,Couzinie_24,10.1016/j.msea.2017.10.073,Hf0.75NbTa0.5Ti1.5Zr1.25,BCC,S,CR,,8.4,,C,-153.0,1550.0,,,,,,,,,,,,,74
508,Couzinie_24,10.1016/j.msea.2017.10.073,Hf0.75NbTa0.5Ti1.5Zr1.25,BCC,S,CR,,8.4,,C,-103.0,1380.0,,,,,,,,,,,,,74
509,Couzinie_24,10.1016/j.msea.2017.10.073,Hf0.75NbTa0.5Ti1.5Zr1.25,BCC,S,CR,,8.4,,C,-103.0,1370.0,,,,,,,,,,,,,74
510,Couzinie_24,10.1016/j.msea.2017.10.073,Hf0.75NbTa0.5Ti1.5Zr1.25,BCC,S,CR,,8.4,,C,-43.0,1200.0,,,,,,,,,,,,,74
511,Couzinie_24,10.1016/j.msea.2017.10.073,Hf0.75NbTa0.5Ti1.5Zr1.25,BCC,S,CR,,8.4,,C,-43.0,1180.0,,,,,,,,,,,,,74
512,Couzinie_24,10.1016/j.msea.2017.10.073,Hf0.75NbTa0.5Ti1.5Zr1.25,BCC,S,CR,,8.4,,C,72.0,1040.0,,,,,,,,,,,,,74
513,Couzinie_24,10.1016/j.msea.2017.10.073,Hf0.75NbTa0.5Ti1.5Zr1.25,BCC,S,CR,,8.4,,C,72.0,1020.0,,,,,,,,,,,,,74
514,Couzinie_24,10.1016/j.msea.2017.10.073,Hf0.75NbTa0.5Ti1.5Zr1.25,BCC,S,CR,,8.4,,C,25.0,1150.0,,,,,,,,,,,,,74
515,Couzinie_24,10.1016/j.msea.2017.10.073,Hf0.75NbTa0.5Ti1.5Zr1.25,BCC,S,CR,,8.4,,C,25.0,1100.0,,,,,,,,,,,,,74
516,Couzinie_24,10.1016/j.msea.2017.10.073,Hf0.75NbTa0.5Ti1.5Zr1.25,BCC,S,CR+A,,8.4,,C,-268.8,2390.0,,,,103.1,,,,,,,,,74
517,Couzinie_24,10.1016/j.msea.2017.10.073,Hf0.75NbTa0.5Ti1.5Zr1.25,BCC,S,CR+A,,8.4,,C,-196.0,1920.0,,,,,,,,,,,,,74
518,Couzinie_24,10.1016/j.msea.2017.10.073,Hf0.75NbTa0.5Ti1.5Zr1.25,BCC,S,CR+A,,8.4,,C,-153.0,1370.0,,,,,,,,,,,,,74
519,Couzinie_24,10.1016/j.msea.2017.10.073,Hf0.75NbTa0.5Ti1.5Zr1.25,BCC,S,CR+A,,8.4,,C,-103.0,1250.0,,,,,,,,,,,,,74
520,Couzinie_24,10.1016/j.msea.2017.10.073,Hf0.75NbTa0.5Ti1.5Zr1.25,BCC,S,CR+A,,8.4,,C,-43.0,1020.0,,,,,,,,,,,,,74
521,Couzinie_24,10.1016/j.msea.2017.10.073,Hf0.75NbTa0.5Ti1.5Zr1.25,BCC,S,CR+A,,8.4,,C,72.0,640.0,,,,,,,,,,,,,74
522,Couzinie_24,10.1016/j.msea.2017.10.073,Hf0.75NbTa0.5Ti1.5Zr1.25,BCC,S,CR+A,,8.4,,C,25.0,890.0,,,,,,,,,,,,,74
523,Couzinie_25,10.1016/j.matlet.2016.03.133,HfMo0.25NbTaTiZr,BCC,S,AC,,9.9,,C,25.0,1112.0,,,,121.0,,,,,,,,,75
524,Couzinie_25,10.1016/j.matlet.2016.03.133,HfMo0.5NbTaTiZr,BCC,S,AC,,9.9,,C,25.0,1317.0,,,,130.5,,,,,,,,,75
525,Couzinie_25,10.1016/j.matlet.2016.03.133,HfMo0.75NbTaTiZr,BCC,S,AC,,9.9,,C,25.0,1373.0,,,,139.1,,,,,,,,,75
526,Couzinie_25,10.1016/j.matlet.2016.03.133,HfMoNbTaTiZr,BCC,S,AC,,9.9,,C,25.0,1512.0,1800.0,,,147.0,,,,,,,,,75
527,Couzinie_25,10.1016/j.matlet.2016.03.133,HfNbTaTiZr,BCC,S,AC,,9.9,,C,25.0,1015.0,,,,110.6,,,,,,,,,75
528,Couzinie_26,10.1016/j.jallcom.2016.10.014,HfMo0.5NbSi0.3TiV0.5,BCC+M5Si3,M,AC,,8.5,,C,1000.0,398.0,430.0,,,,,,,,,,,,76
529,Couzinie_26,10.1016/j.jallcom.2016.10.014,HfMo0.5NbSi0.3TiV0.5,BCC+M5Si3,M,AC,,8.5,,C,25.0,1617.0,2016.0,,,,,,,,,,,,76
530,Couzinie_26,10.1016/j.jallcom.2016.10.014,HfMo0.5NbSi0.3TiV0.5,BCC+M5Si3,M,AC,,8.5,,C,1200.0,166.0,187.0,,,,,,,,,,,,76
531,Couzinie_26,10.1016/j.jallcom.2016.10.014,HfMo0.5NbSi0.5TiV0.5,BCC+M5Si3,M,AC,,8.2,,C,1000.0,614.0,696.0,,,,,,,,,,,,76
532,Couzinie_26,10.1016/j.jallcom.2016.10.014,HfMo0.5NbSi0.5TiV0.5,BCC+M5Si3,M,AC,,8.2,,C,25.0,1787.0,2052.0,,,,,,,,,,,,76
533,Couzinie_26,10.1016/j.jallcom.2016.10.014,HfMo0.5NbSi0.5TiV0.5,BCC+M5Si3,M,AC,,8.2,,C,1200.0,188.0,219.0,,,,,,,,,,,,76
534,Couzinie_26,10.1016/j.jallcom.2016.10.014,HfMo0.5NbSi0.7TiV0.5,BCC+M5Si3,M,AC,,7.9,,C,1000.0,673.0,741.0,,,,,,,,,,,,76
535,Couzinie_26,10.1016/j.jallcom.2016.10.014,HfMo0.5NbSi0.7TiV0.5,BCC+M5Si3,M,AC,,7.9,,C,25.0,2134.0,2242.0,,,,,,,,,,,,76
536,Couzinie_26,10.1016/j.jallcom.2016.10.014,HfMo0.5NbSi0.7TiV0.5,BCC+M5Si3,M,AC,,7.9,,C,1200.0,235.0,268.0,,,,,,,,,,,,76
537,Couzinie_26,10.1016/j.jallcom.2016.10.014,HfMo0.5NbTiV0.5,BCC,S,AC,,9.0,,C,1000.0,368.0,394.0,,,131.9,,,,,,,,,76
538,Couzinie_26,10.1016/j.jallcom.2016.10.014,HfMo0.5NbTiV0.5,BCC,S,AC,,9.0,,C,1200.0,60.0,,,,,,,,,,,,,76
539,Couzinie_26,10.1016/j.jallcom.2016.10.014,HfMo0.5NbTiV0.5,BCC,S,AC,,9.0,,C,25.0,1260.0,,,,,,,,,,,,,76
540,Couzinie_29,10.1080/21663831.2016.1221861,HfNb0.18Ta0.18Ti1.27Zr,BCC,S,CR+A,,8.5,,T,25.0,540.0,995.0,,,95.2,,,,,,,,,77
541,Couzinie_3,10.1016/j.matdes.2017.11.033,Al0.25NbTaTiZr,BCC+B2,M,HIP+A,,8.6,,C,1000.0,366.0,408.0,,,,,,,,,,,,78
542,Couzinie_3,10.1016/j.matdes.2017.11.033,Al0.25NbTaTiZr,BCC+B2,M,HIP+A,,8.6,,C,25.0,1745.0,1830.0,,,,,,,,,,,,78