,REFERENCE: tag,REFERENCE: doi,FORMULA,PROPERTY: Type of phases,PROPERTY: Single/Multiphase,PROPERTY: synthesis method,PROPERTY: grain size ($\mu$m),PROPERTY: ROM Density (g/cm$^3$),PROPERTY: HV,PROPERTY: Type of test,PROPERTY: Test temperature ($^\circ$C),PROPERTY: YS (MPa),PROPERTY: UTS (MPa),PROPERTY: Elongation (%),PROPERTY: Elongation plastic (%),PROPERTY: ROM Young modulus (GPa),PROPERTY: Exp. Young modulus (GPa),PROPERTY: O content (wppm),PROPERTY: N content (wppm),PROPERTY: C content (wppm),REFERENCE: comment,Internal Reference #,Original DOI,PROPERTY: Exp. Density (g/cm$^3$),Unnamed: 22,IDENTIFIER: Reference ID
0,4,10.1016/j.jmmm.2014.07.023,Al0.25CoFeNi,FCC,S,AC,,7.9,138,C,25.0,158.0,,,,196.0,,,,,,,,,,27
1,4,10.1016/j.jmmm.2014.07.023,Al0.5CoFeNi,FCC+BCC,M,AC,,7.4,212,C,25.0,346.0,,,,187.0,,,,,,,,,,27
2,4,10.1016/j.jmmm.2014.07.023,Al0.75CoFeNi,FCC+BCC,M,AC,,7.0,385,C,25.0,794.0,,,,179.0,,,,,,,,,,27
3,4,10.1016/j.jmmm.2014.07.023,AlCoFeNi,BCC,S,AC,,6.6,456,C,25.0,964.0,,,,173.0,,,,,,,,,,27
4,4,10.1016/j.jmmm.2014.07.023,CoFeNi,FCC,S,AC,,8.5,125,C,25.0,204.0,,,,207.0,,,,,,,,,,27
5,4,10.1016/j.jmmm.2014.07.023,CoFeNi,FCC,S,AC,,8.5,125,C,25.0,209.0,,,,207.0,,,,,,,,,,27
6,4,10.1016/j.jmmm.2014.07.023,CoFeNiSi0.25,FCC,S,AC,,7.7,149,C,25.0,196.0,,,,194.0,,,,,,,,,,27
7,4,10.1016/j.jmmm.2014.07.023,CoFeNiSi0.5,FCC+Ni3Si,M,AC,,7.1,287,C,25.0,476.0,,,,,,,,,,,,,,27
8,4,10.1016/j.jmmm.2014.07.023,CoFeNiSi0.75,FCC+Ni3Si,M,AC,,6.6,570,C,25.0,1301.0,,,,,,,,,,,,,,27
22,7,10.1016/j.jallcom.2009.08.090,Al0.25CoCrFeNi,FCC,S,A,,7.7,110,,25.0,,,,,216.0,,,,,,,,,,54
23,7,10.1016/j.jallcom.2009.08.090,Al0.25CoCrFeNi,FCC,S,A,,7.7,113,,25.0,,,,,216.0,,,,,,,,,,54
24,7,10.1016/j.jallcom.2009.08.090,Al0.375CoCrFeNi,FCC,S,A,,7.5,131,,25.0,,,,,211.0,,,,,,,,,,54
25,7,10.1016/j.jallcom.2009.08.090,Al0.375CoCrFeNi,FCC,S,A,,7.5,196,,25.0,,,,,211.0,,,,,,,,,,54
26,7,10.1016/j.jallcom.2009.08.090,Al0.5CoCrFeNi,FCC+BCC,M,A,,7.3,159,,25.0,,,,,208.0,,,,,,,,,,54
27,7,10.1016/j.jallcom.2009.08.090,Al0.5CoCrFeNi,FCC+BCC,M,A,,7.3,209,,25.0,,,,,208.0,,,,,,,,,,54
28,7,10.1016/j.jallcom.2009.08.090,Al0.75CoCrFeNi,FCC+BCC,M,A,,7.0,388,,25.0,,,,,200.0,,,,,,,,,,54
29,7,10.1016/j.jallcom.2009.08.090,Al0.75CoCrFeNi,FCC+BCC,M,A,,7.0,280,,25.0,,,,,200.0,,,,,,,,,,54
30,7,10.1016/j.jallcom.2009.08.090,Al0.875CoCrFeNi,BCC,S,A,,6.9,538,,25.0,,,,,197.0,,,,,,,,,,54
31,7,10.1016/j.jallcom.2009.08.090,Al0.875CoCrFeNi,FCC+BCC,M,A,,6.9,361,,25.0,,,,,197.0,,,,,,,,,,54
32,7,10.1016/j.jallcom.2009.08.090,Al1.25CoCrFeNi,BCC,S,A,,6.5,487,,25.0,,,,,188.0,,,,,,,,,,54
33,7,10.1016/j.jallcom.2009.08.090,Al1.25CoCrFeNi,BCC,S,A,,6.5,499,,25.0,,,,,188.0,,,,,,,,,,54
34,7,10.1016/j.jallcom.2009.08.090,Al1.5CoCrFeNi,BCC,S,A,,6.2,484,,25.0,,,,,183.0,,,,,,,,,,54
35,7,10.1016/j.jallcom.2009.08.090,Al1.5CoCrFeNi,BCC,S,A,,6.2,517,,25.0,,,,,183.0,,,,,,,,,,54
36,7,10.1016/j.jallcom.2009.08.090,Al2CoCrFeNi,BCC,S,A,,5.9,509,,25.0,,,,,173.0,,,,,,,,,,54
37,7,10.1016/j.jallcom.2009.08.090,Al2CoCrFeNi,BCC,S,A,,5.9,512,,25.0,,,,,173.0,,,,,,,,,,54
38,7,10.1016/j.jallcom.2009.08.090,AlCoCrFeNi,BCC,S,A,,6.7,484,,25.0,,,,,194.0,,,,,,,,,,54
39,7,10.1016/j.jallcom.2009.08.090,AlCoCrFeNi,FCC+BCC,M,A,,6.7,433,,25.0,,,,,194.0,,,,,,,,,,54
40,7,10.1016/j.jallcom.2009.08.090,CoCrFeNi,FCC,S,A,,8.2,116,,25.0,,,,,225.0,,,,,,,,,,54
41,7,10.1016/j.jallcom.2009.08.090,CoCrFeNi,FCC,S,A,,8.2,113,,25.0,,,,,225.0,,,,,,,,,,54
42,8,10.1007/s11837-013-0753-6,Al0.5CoCrFeMo0.5Ni,FCC+Sigma,M,AC,,7.7,425,,25.0,,,,,,,,,,,,,,,63
43,8,10.1007/s11837-013-0753-6,Al1.5CoCrFeMo0.5Ni,B2+Sigma,M,AC,,6.6,655,,25.0,,,,,,,,,,,,,,,63
44,8,10.1007/s11837-013-0753-6,Al2CoCrFeMo0.5Ni,BCC + B2,S,AC,,6.3,605,,25.0,,,,,185.0,,,,,,,,,,63
45,8,10.1007/s11837-013-0753-6,AlCoCrFeMo0.5Ni,B2+Sigma,M,AC,,7.1,715,,25.0,,,,,,,,,,,,,,,63
46,8,10.1007/s11837-013-0753-6,CoCrFeMo0.5Ni,FCC+Sigma,M,AC,,8.5,210,,25.0,,,,,,,,,,,,,,,63
49,9,10.1016/j.msea.2008.12.053,Al2CoCrFeNiTi,BCC + BCC,S,AC,,5.6,643,C,25.0,,1030.0,,5.0,,94.0,,,,elongation is plastic ,,,,,66
52,10,10.1016/j.actamat.2011.06.041,Al0.2Co1.5CrFeNi1.5Ti,FCC+Ni3Ti,M,A,,7.2,717,,25.0,,,,,,,,,,,,,,,1
53,10,10.1016/j.actamat.2011.06.041,Al0.2Co1.5CrFeNi1.5Ti0.5,FCC,S,A,,7.6,487,,25.0,,,,,206.0,,,,,,,,,,1
54,10,10.1016/j.actamat.2011.06.041,Co1.5CrFeNi1.5Ti,FCC+Ni3Ti,M,A,,7.4,654,,25.0,,,,,,,,,,,,,,,1
55,10,10.1016/j.actamat.2011.06.041,Co1.5CrFeNi1.5Ti0.5,FCC ,S,A,,7.8,509,,25.0,,,,,211.0,,,,,,,,,,1
56,11,10.1016/j.matdes.2013.04.061,Al0.7Co0.3CrFeNi,FCC+BCC+B2,M,SPS,,6.8,624,C,25.0,2033.0,2635.0,8,,,,,,,labeled as plastic but is total,,,,,2
58,13,10.1016/j.jallcom.2008.07.124,Al1.5CoCrFeNi,BCC,S,AC,,6.2,402,,25.0,,,,,183.0,,,,,,,,,,4
59,13,10.1016/j.jallcom.2008.07.124,Al2.5CoCrFeNi,BCC,S,AC,,5.6,487,,25.0,,,,,165.0,,,,,,,,,,4
60,13,10.1016/j.jallcom.2008.07.124,Al2CoCrFeNi,BCC,S,AC,,5.9,432,,25.0,,,,,173.0,,,,,,,,,,4
61,13,10.1016/j.jallcom.2008.07.124,Al3CoCrFeNi,BCC,S,AC,,5.3,506,,25.0,,,,,158.0,,,,,,,,,,4
62,13,10.1016/j.jallcom.2008.07.124,AlCoCrFeNi,BCC,S,AC,,6.7,395,,25.0,,,,,194.0,,,,,,,,,,4
63,13,10.1016/j.jallcom.2008.07.124,AlCrCuFeNi,FCC+BCC,M,AC,,6.8,342,,25.0,,,,,178.0,,,,,,,,,,4
64,13,10.1016/j.jallcom.2008.07.124,CoCrCuFeNi,FCC,S,AC,,8.3,286,,25.0,,,,,206.0,,,,,,,,,,4
65,13,10.1016/j.jallcom.2008.07.124,CrCuFeMnNi,FCC+BCC,M,AC,,8.1,296,,25.0,,,,,204.0,,,,,,,,,,4
66,13,10.1016/j.jallcom.2008.07.124,CrCuFeMoNi,FCC,S,AC,,8.7,263,,25.0,,,,,230.0,,,,,,,,,,4
82,20,10.1016/j.msea.2011.10.110,AlCoCrFeNb0.1Ni,BCC,S,AC,,6.8,569,C,25.0,1641.0,3285.0,,17.0,192.0,,,,,plastic strain ,,,,,8
83,20,10.1016/j.msea.2011.10.110,AlCoCrFeNb0.25Ni,BCC+Laves (C14),M,AC,,6.8,668,C,25.0,1959.0,3008.0,,11.0,,,,,,,,,,,8
84,20,10.1016/j.msea.2011.10.110,AlCoCrFeNb0.5Ni,BCC+Laves (C14),M,AC,,7.0,747,C,25.0,2473.0,3170.0,,4.0,,,,,,,,,,,8
86,20,10.1016/j.msea.2011.10.110,AlCoCrFeNi,BCC,S,AC,,6.7,520,C,25.0,1373.0,3531.0,,25.0,194.0,,,,,,,,,,8
87,21,10.1002/adem.200900171,Al0.8CoCrCuFeNi,FCC+BCC,M,AC,,7.3,270,,25.0,,,,,187.0,,,,,,,,,,9
88,21,10.1002/adem.200900171,AlCo0.5CrFeMo0.5Ni,BCC+sigma,M,AC,,7.0,801,,25.0,,,,,,,,,,,,,,,9
89,21,10.1002/adem.200900171,AlCo1.5CrFeMo0.5Ni,BCC+sigma,M,AC,,7.2,741,,25.0,,,,,,,,,,,,,,,9
90,21,10.1002/adem.200900171,AlCo2CrFeMo0.5Ni,FCC+BCC+sigma,M,AC,200,7.3,586,,25.0,,,,,,,,,,,,,,,9
91,21,10.1002/adem.200900171,AlCoCrFeMo0.5Ni,BCC+sigma,M,AC,,7.1,796,,25.0,,,,,,,,,,,,,,,9
92,22,10.1016/j.wear.2009.10.013,AlCoCrFe1Mo0.5Ni,BCC+sigma,M,AC,,7.0,755,,25.0,,,,,,,,,,edited the composition from 0.5 to 1,,,,,10
93,22,10.1016/j.wear.2009.10.013,AlCoCrFe0.6Mo0.5Ni,BCC+sigma,M,AC,,7.1,754,,25.0,,,,,,,,,,,,,,,10
94,22,10.1016/j.wear.2009.10.013,AlCoCrFe1.5Mo0.5Ni,BCC+sigma,M,AC,,7.2,635,,25.0,,,,,,,,,,,,,,,10
95,22,10.1016/j.wear.2009.10.013,AlCoCrFe2Mo0.5Ni,BCC+sigma,M,AC,,7.2,639,,25.0,,,,,,,,,,,,,,,10
96,23,10.1016/j.intermet.2012.09.008,AlCoCrFeMo0.5,B2 + omega,M,AC,,6.8,857,,25.0,,,,,,,,,,changed from BCC to B2,,,,,11
97,23,10.1016/j.intermet.2012.09.008,AlCoCrFeMo0.5Ni,B2 + omega,M,AC,,7.1,730,,25.0,,,,,,,,,,changed from BCC to B2,,,,,11
98,23,10.1016/j.intermet.2012.09.008,AlCoCrFeMo0.5Ni0.5,B2 + omega,M,AC,,7.0,708,,25.0,,,,,,,,,,changed from BCC to B2,,,,,11
99,23,10.1016/j.intermet.2012.09.008,AlCoCrFeMo0.5Ni1.5,FCC+B2 + omega,M,AC,,7.2,586,,25.0,,,,,,,,,,changed from BCC to B2,,,,,11
100,23,10.1016/j.intermet.2012.09.008,AlCoCrFeMo0.5Ni2,FCC+B2 + omega,M,AC,,7.4,395,,25.0,,,,,,,,,,changed from BCC to B2,,,,,11
113,26,10.1063/1.2734517,AlCoCrFeNiTi0.5,BCC+BCC,M,AC,,6.4,178,C,25.0,2260.0,3140.0,24.4,23.0,,178.0,,,,,,,,,14
115,27,10.1002/adem.200300567,AlCoCrFeNiTiVZr,,,AC,,6.3,780,,25.0,,,,,,,,,,,,,,,15
116,27,10.1002/adem.200300567,AlCoFeNiTiVZr,BCC,S,AC,,6.2,790,,25.0,,,,,143.0,,,,,,,,,,15
117,27,10.1002/adem.200300567,AlFeNiTiVZr,BCC,S,AC,,5.9,800,,25.0,,,,,132.0,,,,,,,,,,15
118,27,10.1002/adem.200300567,CoCrCuFeNiTiVZr,,,AC,,7.1,680,,25.0,,,,,168.0,,,,,,,,,,15
119,27,10.1002/adem.200300567,CoCrFeMoNiTiVZr,,,AC,,7.3,850,,25.0,,,,,193.0,,,,,,,,,,15
120,27,10.1002/adem.200300567,CoCuFeNiTiVZr,,,AC,,7.1,630,,25.0,,,,,,,,,,,,,,,15
121,27,10.1002/adem.200300567,CoFeMoNiTiVZr,,,AC,,7.3,790,,25.0,,,,,,,,,,,,,,,15
122,27,10.1002/adem.200300567,CuFeNiTiVZr,,,AC,,6.8,590,,25.0,,,,,142.0,,,,,,,,,,15
123,27,10.1002/adem.200300567,FeMoNiTiVZr,BCC+Im,M,AC,,7.1,740,,25.0,,,,,,,,,,,,,,,15
124,28,10.1016/j.actamat.2013.09.037,Al0.10CoCrFeMnNi,FCC,S,AC,,7.9,180,,25.0,,,,,216.0,,,,,,,,,,16
125,28,10.1016/j.actamat.2013.09.037,Al0.20CoCrFeMnNi,FCC,S,AC,,7.7,171,T,25.0,220.0,,56,,214.0,,,,,total elongation ,,,,,16
126,28,10.1016/j.actamat.2013.09.037,Al0.38CoCrFeMnNi,FCC,S,AC,,7.5,182,T,25.0,244.0,,45,,209.0,,,,,,,,,,16
127,28,10.1016/j.actamat.2013.09.037,Al0.43CoCrFeMnNi,FCC+BCC,M,AC,,7.4,183,T,25.0,285.0,,35,,208.0,,,,,,,,,,16
128,28,10.1016/j.actamat.2013.09.037,Al0.49CoCrFeMnNi,FCC+BCC,M,AC,,7.4,220,T,25.0,331.0,,29,,206.0,,,,,,,,,,16
129,28,10.1016/j.actamat.2013.09.037,Al0.56CoCrFeMnNi,FCC+BCC,M,AC,,7.3,278,T,25.0,526.0,,16,,204.0,,,,,,,,,,16
130,28,10.1016/j.actamat.2013.09.037,Al0.62CoCrFeMnNi,FCC+BCC,M,AC,,7.2,405,T,25.0,833.0,,5,,203.0,,,,,,,,,,16
131,28,10.1016/j.actamat.2013.09.037,Al0.68CoCrFeMnNi,FCC+BCC,M,AC,,7.2,486,,25.0,,,,,202.0,,,,,,,,,,16
132,28,10.1016/j.actamat.2013.09.037,Al0.75CoCrFeMnNi,FCC+BCC,M,AC,,7.1,530,,25.0,,,,,200.0,,,,,,,,,,16
133,28,10.1016/j.actamat.2013.09.037,Al0.81CoCrFeMnNi,FCC+BCC,M,AC,,7.0,539,,25.0,,,,,199.0,,,,,,,,,,16
134,28,10.1016/j.actamat.2013.09.037,Al0.88CoCrFeMnNi,FCC+BCC,M,AC,,7.0,533,,25.0,,,,,197.0,,,,,,,,,,16
135,28,10.1016/j.actamat.2013.09.037,Al0.95CoCrFeMnNi,FCC+BCC,M,AC,,6.9,535,,25.0,,,,,196.0,,,,,,,,,,16
136,28,10.1016/j.actamat.2013.09.037,Al1.25CoCrFeMnNi,BCC,S,AC,,6.6,539,,25.0,,,,,190.0,,,,,,,,,,16
137,28,10.1016/j.actamat.2013.09.037,CoCrFeMnNi,FCC,S,AC,,8.0,176,T,25.0,208.0,,62,,219.0,,,,,,,,,,16
138,29,10.1016/j.jallcom.2014.12.157,CoCrFeMnNi,FCC,S,AC,300,8.0,144,C,25.0,,,,,,,,,,"plastic strain (called fracture strain, labeled e)",,,,,17
139,29,10.1016/j.jallcom.2014.12.157,CoCrFeMnNi,FCC,S,A,350,8.0,135,C,25.0,230.0,,,75.0,219.0,,,,,,,,,,17
140,29,10.1016/j.jallcom.2014.12.157,CoCrFeMnNiV0.25,FCC,S,AC,120,7.9,151,C,25.0,,,,,,,,,,,,,,,17
141,29,10.1016/j.jallcom.2014.12.157,CoCrFeMnNiV0.25, FCC + sigma,S,A,130,7.9,144,C,25.0,200.0,,,75.0,215.0,,,,,added sigma,,,,,17
142,29,10.1016/j.jallcom.2014.12.157,CoCrFeMnNiV0.5,FCC,S,AC,220,7.8,186,C,25.0,,,,,,,,,,,,,,,17
143,29,10.1016/j.jallcom.2014.12.157,CoCrFeMnNiV0.5,FCC,S,A,250,7.8,275,C,25.0,620.0,,,75.0,211.0,,,,,,,,,,17
144,29,10.1016/j.jallcom.2014.12.157,CoCrFeMnNiV0.75,FCC+sigma,M,A,500,7.7,380,C,25.0,740.0,1325.0,,7.8,,,,,,,,,,,17
145,29,10.1016/j.jallcom.2014.12.157,CoCrFeMnNiV0.75,FCC+sigma,M,AC,500,7.7,342,C,25.0,,,,,,,,,,,,,,,17
146,29,10.1016/j.jallcom.2014.12.157,CoCrFeMnNiV1.0,FCC+sigma,M,A,12,7.7,636,C,25.0,1660.0,1845.0,,0.5,,,,,,,,,,,17
147,29,10.1016/j.jallcom.2014.12.157,CoCrFeMnNiV1.0,FCC+sigma,M,AC,,7.7,650,C,25.0,,,,,,,,,,,,,,,17
148,30,10.1016/j.msea.2010.05.052,Al0.3CrFe1.5MnNi0.5,FCC+BCC,M,AC,,7.2,297,,25.0,,,,,213.0,,,,,,,,,,18
149,30,10.1016/j.msea.2010.05.052,Al0.5CrFe1.5MnNi0.5,BCC,S,AC,,7.0,396,,25.0,,,,,206.0,,,,,,,,,,18
150,31,10.1016/j.jallcom.2013.03.253,AlCrFeNi,BCC + B2,M,AC,,6.3,472,C,25.0,1406.0,2927.0,,29.0,190.0,,,,,plastic strain; added B2,,,,,19
151,31,10.1016/j.jallcom.2013.03.253,AlCrFeNiMo,B2+sigma,M,AC,,7.2,905,,25.0,,,,,,,,,,changed BCC to B2,,,,,19
152,31,10.1016/j.jallcom.2013.03.253,AlCrFeNiMo0.2,BCC + B2,M,AC,,6.5,549,C,25.0,1487.0,3222.0,,29.0,197.0,,,,,added B2,,,,,19
153,31,10.1016/j.jallcom.2013.03.253,AlCrFeNiMo0.5,BCC + B2,M,AC,,6.8,622,C,25.0,1749.0,2644.0,,13.0,205.0,,,,,added B2,,,,,19
154,31,10.1016/j.jallcom.2013.03.253,AlCrFeNiMo0.8,B2+sigma,M,AC,,7.0,854,C,25.0,1513.0,1513.0,,0.0,,,,,,changed BCC to B2,,,,,19
155,32,10.3166/acsm.31.633-648,Al0.3CoCrCuFe,FCC,S,,,7.7,180,,25.0,,,,,194.0,,,,,,,,,,20
156,32,10.3166/acsm.31.633-648,Al0.5CoCrCuFe,FCC,S,,,7.4,207,,25.0,,,,,187.0,,,,,,,,,,20
157,32,10.3166/acsm.31.633-648,Al0.8CoCrCuFe,FCC+BCC,M,,,7.0,271,,25.0,,,,,177.0,,,,,,,,,,20
158,32,10.3166/acsm.31.633-648,Al1.3CoCrCuFe,FCC+BCC,M,,,6.5,476,,25.0,,,,,165.0,,,,,,,,,,20
159,32,10.3166/acsm.31.633-648,Al1.5CoCrCuFe,FCC+BCC,M,,,6.3,510,,25.0,,,,,167.0,,,,,,,,,,20
160,32,10.3166/acsm.31.633-648,Al1.8CoCrCuFe,FCC+BCC,M,,,6.0,557,,25.0,,,,,155.0,,,,,,,,,,20
161,32,10.3166/acsm.31.633-648,Al2.0CoCrCuFe,FCC+BCC,M,,,5.9,567,,25.0,,,,,152.0,,,,,,,,,,20
162,32,10.3166/acsm.31.633-648,Al2.3CoCrCuFe,FCC+BCC,M,,,5.7,603,,25.0,,,,,147.0,,,,,,,,,,20
163,32,10.3166/acsm.31.633-648,Al2.5CoCrCuFe,FCC+BCC,M,,,5.6,624,,25.0,,,,,144.0,,,,,,,,,,20
164,32,10.3166/acsm.31.633-648,Al2.8CoCrCuFe,BCC,S,,,5.5,657,,25.0,,,,,140.0,,,,,,,,,,20
165,32,10.3166/acsm.31.633-648,Al3.0CoCrCuFe,BCC,S,,,5.4,644,,25.0,,,,,138.0,,,,,,,,,,20
166,32,10.3166/acsm.31.633-648,AlCoCrCuFe,FCC+BCC,M,,,6.8,407,,25.0,,,,,172.0,,,,,,,,,,20
167,32,10.3166/acsm.31.633-648,CoCrCuFe,FCC,S,,,8.2,134,,25.0,,,,,206.0,,,,,,,,,,20
168,33,10.1016/j.intermet.2010.03.030,CoCrCu0.5FeNi,FCC,S,AC,,8.3,172,,25.0,,,,,214.0,,,,,,,,,,21
172,36,10.1149/1.2744133,Al0.5B0.2CoCrCuFeNi,,,AC,,7.7,415,,25.0,,,,,,,,,,,,,,,23
173,36,10.1149/1.2744133,Al0.5B0.6CoCrCuFeNi,,,AC,,7.7,505,,25.0,,,,,,,,,,,,,,,23
174,36,10.1149/1.2744133,Al0.5BCoCrCuFeNi,,,AC,,7.8,736,,25.0,,,,,,,,,,,,,,,23
175,36,10.1149/1.2744133,Al0.5CoCrCuFeNi,,,AC,,7.6,300,,25.0,,,,,193.0,,,,,,,,,,23
176,37,10.2320/matertrans.47.1395,Al0.5CoCrCuFeNi,FCC,S,AC,,7.6,225,,25.0,,,,,193.0,,,,,,,,,,24
177,37,10.2320/matertrans.47.1395,Al0.5CoCrCuFeNiTi,FCC+BCC+sigma,M,AC,,7.0,636,,25.0,,,,,,,,,,,,,,,24
178,37,10.2320/matertrans.47.1395,Al0.5CoCrCuFeNiTi0.2,FCC,S,AC,,7.5,272,,25.0,,,,,191.0,,,,,,,,,,24
179,37,10.2320/matertrans.47.1395,Al0.5CoCrCuFeNiTi0.4,FCC,S,AC,,7.3,321,,25.0,,,,,188.0,,,,,,,,,,24
180,37,10.2320/matertrans.47.1395,Al0.5CoCrCuFeNiTi0.6,FCC+BCC,M,AC,,7.2,458,,25.0,,,,,186.0,,,,,,,,,,24
181,37,10.2320/matertrans.47.1395,Al0.5CoCrCuFeNiTi0.8,FCC+BCC + sigma,M,AC,,7.1,590,,25.0,,,,,184.0,,,,,,,,,,24
182,37,10.2320/matertrans.47.1395,Al0.5CoCrCuFeNiTi1.2,FCC+BCC+sigma,M,AC,,6.9,646,,25.0,,,,,,,,,,,,,,,24
183,37,10.2320/matertrans.47.1395,Al0.5CoCrCuFeNiTi1.4,FCC+BCC+B2 +sigma + other,M,AC,,6.8,664,,25.0,,,,,,,,,,,,,,,24
184,37,10.2320/matertrans.47.1395,Al0.5CoCrCuFeNiTi1.6,FCC+BCC+B2 +other,M,AC,,6.7,657,,25.0,,,,,,,,,,,,,,,24
185,37,10.2320/matertrans.47.1395,Al0.5CoCrCuFeNiTi1.8,FCC+BCC+B2 +other,M,AC,,6.6,667,,25.0,,,,,,,,,,,,,,,24
186,37,10.2320/matertrans.47.1395,Al0.5CoCrCuFeNiTi2,FCC+BCC+B2 +other,M,AC,,6.5,696,,25.0,,,,,,,,,,,,,,,24
187,38,10.1007/s11661-006-0081-3,Al0.5CoCrCuFeNi,FCC,S,AC,,7.6,215,,25.0,,,,,193.0,,,,,,,,,,25
188,38,10.1007/s11661-006-0081-3,Al0.5CoCrCuFeNiV0.2,FCC,S,AC,,7.6,204,,25.0,,,,,191.0,,,,,,,,,,25
189,38,10.1007/s11661-006-0081-3,Al0.5CoCrCuFeNiV0.4,FCC+BCC,M,AC,,7.5,231,,25.0,,,,,189.0,,,,,,,,,,25
190,38,10.1007/s11661-006-0081-3,Al0.5CoCrCuFeNiV0.6,FCC+BCC+sigma,M,AC,,7.5,328,,25.0,,,,,,,,,,,,,,,25
191,38,10.1007/s11661-006-0081-3,Al0.5CoCrCuFeNiV0.8,FCC+BCC+sigma,M,AC,,7.4,447,,25.0,,,,,,,,,,,,,,,25
192,38,10.1007/s11661-006-0081-3,Al0.5CoCrCuFeNiV1.0,FCC+BCC+sigma,M,AC,,7.4,639,,25.0,,,,,,,,,,,,,,,25
193,38,10.1007/s11661-006-0081-3,Al0.5CoCrCuFeNiV1.2,BCC,S,AC,,7.3,579,,25.0,,,,,182.0,,,,,,,,,,25
194,38,10.1007/s11661-006-0081-3,Al0.5CoCrCuFeNiV1.4,BCC,S,AC,,7.3,577,,25.0,,,,,180.0,,,,,,,,,,25
195,38,10.1007/s11661-006-0081-3,Al0.5CoCrCuFeNiV1.6,BCC,S,AC,,7.2,594,,25.0,,,,,179.0,,,,,,,,,,25
196,38,10.1007/s11661-006-0081-3,Al0.5CoCrCuFeNiV1.8,BCC,S,AC,,7.2,597,,25.0,,,,,177.0,,,,,,,,,,25
197,38,10.1007/s11661-006-0081-3,Al0.5CoCrCuFeNiV2.0,BCC,S,AC,,7.2,587,,25.0,,,,,176.0,,,,,,,,,,25
198,39,10.1016/j.msea.2012.07.003,AlCoCrCuFeNi,FCC+BCC,M,AC,,7.1,472,,25.0,,,,,184.0,,,,,,,,,,26
199,39,10.1016/j.msea.2012.07.003,AlCoCuFeNdNi,Im,M,AC,,7.4,578,,25.0,,,,,,,,,,changed Nb to Nd,,,,,26
200,39,10.1016/j.msea.2012.07.003,AlCoCuFeNi,FCC+BCC,M,AC,,7.0,536,,25.0,,,,,164.0,,,,,,,,,,26
201,39,10.1016/j.msea.2012.07.003,AlCoCuFeNiSi,FCC+BCC,M,AC,,5.9,682,,25.0,,,,,145.0,,,,,,,,,,26
202,39,10.1016/j.msea.2012.07.003,AlCoCuFeNiTi,FCC+BCC,M,AC,,6.5,626,,25.0,,,,,156.0,,,,,,,,,,26
203,39,10.1016/j.msea.2012.07.003,AlCoCuFeNiZr,FCC+BCC+Im,M,AC,,6.9,472,,25.0,,,,,,,,,,,,,,,26
220,44,10.1016/j.matdes.2012.08.019,CoCuFeMnNi,FCC,S,AC,,8.4,208,T,25.0,,478.0,,14.0,190.0,,,,,i think this is plastic,,,,,31
221,44,10.1016/j.matdes.2012.08.019,CoCuFeMnNiSn0.03,FCC,S,AC,,8.4,192,T,25.0,,465.0,,18.0,,,,,,,,,,,31
222,44,10.1016/j.matdes.2012.08.019,CoCuFeMnNiSn0.05,FCC+Im,M,AC,,8.4,205,T,25.0,,475.0,,12.0,,,,,,,,,,,31
223,44,10.1016/j.matdes.2012.08.019,CoCuFeMnNiSn0.08,FCC+Im,M,AC,,8.3,219,T,25.0,,425.0,,7.0,,,,,,,,,,,31
224,44,10.1016/j.matdes.2012.08.019,CoCuFeMnNiSn0.10,FCC+Im,M,AC,,8.3,253,T,25.0,,470.0,,6.0,,,,,,,,,,,31
225,44,10.1016/j.matdes.2012.08.019,CoCuFeMnNiSn0.20,FCC+Im,M,AC,,8.3,319,T,25.0,,368.0,,2.0,,,,,,,,,,,31
226,45,10.1016/j.msea.2011.11.063,AlCrCuFeNi,FCC+BCC,M,A,,6.8,495,,25.0,,,,,178.0,,,,,,,,,,32
227,45,10.1016/j.msea.2011.11.063,AlCrCuFeNi0.6,FCC+BCC,M,A,,6.6,496,,25.0,,,,,176.0,,,,,,,,,,32
228,45,10.1016/j.msea.2011.11.063,AlCrCuFeNi0.8,FCC+BCC,M,A,,6.7,486,,25.0,,,,,177.0,,,,,,,,,,32
229,45,10.1016/j.msea.2011.11.063,AlCrCuFeNi1.2,FCC+BCC,M,A,,6.8,407,,25.0,,,,,179.0,,,,,,,,,,32
230,45,10.1016/j.msea.2011.11.063,AlCrCuFeNi1.4,FCC+BCC,M,A,,6.9,367,,25.0,,,,,180.0,,,,,,,,,,32
231,45,10.1016/j.msea.2011.11.063,CoCrCuFeNi,FCC,S,,,8.3,286,C,25.0,230.0,888.0,51,,56.0,,,,,total elongation ,,,,,32
239,48,10.1016/j.apsusc.2015.07.207,Al1.125CuFe0.75NiTi1.125,FCC,S,AC,,5.9,516,C,25.0,980.0,1326.0,,7.0,,145.0,,,,plastic strain; also unrecorded high temperature data...,,,,,35
240,48,10.1016/j.apsusc.2015.07.207,Al22.5Cu20Fe15Ni20Ti22.5,FCC,S,AC,,5.9,516,C,25.0,980.0,1326.0,,7.0,,145.0,,,,,,,,,35
241,48,10.1016/j.apsusc.2015.07.207,AlCuFeNiTi,FCC,S,AC,,6.1,516,C,25.0,1074.0,1617.0,,8.0,,146.0,,,,,,,,,35
242,48,10.1016/j.apsusc.2015.07.207,AlCuNiTi,FCC,S,AC,,5.7,537,C,25.0,300.0,536.0,,0.85,,108.0,,,,,,,,,35
249,50,10.1080/21663831.2014.985855,AlLiMg0.5ScTi1.5,FCC+HCP,M,,,2.7,591,,25.0,,,,,69.0,,,,,,,,,,38
250,52,10.1007/s11837-014-1066-0,Al0.3NbTa0.8Ti1.4V0.2Zr1.3,BCC,S,HIP+A,180,7.7,500,C,25.0,1965.0,2061.0,5,,110.0,,,,,I think this is total elongation ,,,,,39
253,52,10.1007/s11837-014-1066-0,Al0.3NbTaTi1.4Zr1.3,BCC,S,HIP+A,200,8.1,490,C,25.0,1965.0,2054.0,5,,113.0,,,,,,,,,,39
256,52,10.1007/s11837-014-1066-0,Al0.4Hf0.6NbTaTiZr,BCC,S,HIP+A,140,9.1,500,C,25.0,1841.0,2269.0,10,,110.0,,,,,,,,,,39
259,52,10.1007/s11837-014-1066-0,Al0.5NbTa0.8Ti1.5V0.2Zr,BCC,S,HIP+A,100,7.6,530,C,25.0,2035.0,2105.0,5,,111.0,,,,,,,,,,39
262,52,10.1007/s11837-014-1066-0,AlMo0.5NbTa0.5TiZr,BCC+B2,M,HIP+A,75,7.1,591,C,25.0,2000.0,2368.0,10,,123.0,,,,,,,,,,39
266,52,10.1007/s11837-014-1066-0,AlNb1.5Ta0.5Ti1.5Zr0.5,BCC,S,HIP+A,2000,6.8,408,C,25.0,1280.0,1367.0,4,,106.0,,,,,,,,,,39
269,53,10.1016/j.jallcom.2014.11.064,Al0.3HfNbTaTiZr,BCC,S,AC,105,9.5,353,C,25.0,1188.0,,50,,,63.0,,,,total elongation ,,,,,40
270,53,10.1016/j.jallcom.2014.11.064,Al0.5HfNbTaTiZr,BCC,S,AC,86,9.3,396,C,25.0,1302.0,,46,,,97.0,,,,,,,,,40
271,53,10.1016/j.jallcom.2014.11.064,Al0.75HfNbTaTiZr,BCC,S,AC,89,9.3,427,C,25.0,1415.0,2050.0,30,,,102.0,,,,,,,,,40
272,53,10.1016/j.jallcom.2014.11.064,AlHfNbTaTiZr,BCC+Im,M,AC,92,8.6,441,C,25.0,1489.0,1900.0,21,,,103.0,,,,,,,,,40
273,53,10.1016/j.jallcom.2014.11.064,HfNbTaTiZr,BCC,S,AC,120,9.7,295,C,25.0,1073.0,,50,,,55.0,,,,,,,,,40
274,54,10.3390/e16020870,Al0.25MoNbTiV,BCC,S,AC,,7.1,460,C,25.0,1250.0,1500.0,13,,164.0,,,,,total elongation ,,,,,41
275,54,10.3390/e16020870,Al0.5MoNbTiV,BCC,S,AC,,6.8,487,C,25.0,1625.0,1800.0,11,,158.0,,,,,,,,,,41
276,54,10.3390/e16020870,Al0.75MoNbTiV,BCC,S,AC,,6.6,517,C,25.0,1260.0,1300.0,8,,154.0,,,,,,,,,,41
277,54,10.3390/e16020870,AlMoNbTiV,BCC,S,AC,,6.4,537,C,25.0,1375.0,1400.0,3,,150.0,,,,,,,,,,41
278,54,10.3390/e16020870,MoNbTiV,BCC,S,AC,,7.3,441,C,25.0,1200.0,2050.0,26,,170.0,,,,,,,,,,41