,REFERENCE: tag,REFERENCE: doi,FORMULA,PROPERTY: Type of phases,PROPERTY: Single/Multiphase,PROPERTY: synthesis method,PROPERTY: grain size ($\mu$m),PROPERTY: ROM Density (g/cm$^3$),PROPERTY: HV,PROPERTY: Type of test,PROPERTY: Test temperature ($^\circ$C),PROPERTY: YS (MPa),PROPERTY: UTS (MPa),PROPERTY: Elongation (%),PROPERTY: Elongation plastic (%),PROPERTY: ROM Young modulus (GPa),PROPERTY: Exp. Young modulus (GPa),PROPERTY: O content (wppm),PROPERTY: N content (wppm),PROPERTY: C content (wppm),REFERENCE: comment,Internal Reference #,Original DOI,PROPERTY: Exp. Density (g/cm$^3$),Unnamed: 22,IDENTIFIER: Reference ID
798,J112,10.1557/jmr.2019.18,AlCuCrFeMnW0.5,BCC + sigma + FeMn,M,SPS,,,780,C,25.0,1510,,,,,,,,,fixed strength,,,,,108
799,J113,10.1557/jmr.2019.36,FeCoNiCuNb0.5,FCC + Laves,M,HR,,,,,,,,,,,,,,,No data for FeCoNiCuNb0.5,,,,,109
800,J113,10.1557/jmr.2019.36,FeCoNiCuNb5,FCC + Laves,M,HR,,,,C,25.0,1498,,37.6,,,,,,,fixed processing to HR,,,,,109
801,J113,10.1557/jmr.2019.36,FeCoNiCuNb7.5,FCC + Laves,M,HR,,,,C,25.0,1635,,31.7,,,,,,,fixed processing to HR,,,,,109
802,J113,10.1557/jmr.2019.36,FeCoNiCuNb11.6,FCC + Laves,M,HR,,,,C,25.0,1703,,18.3,,,,,,,fixed processing to HR,,,,,109
803,J113,10.1557/jmr.2019.36,FeCoNiCuNb15,FCC + Laves,M,HR,,,,C,25.0,1415,,12.6,,,,,,,fixed processing to HR,,,,,109
804,J115,10.1016/j.msea.2019.01.088,Fe50Mn30Co10Cr10,FCC + BCP,M,AC,,,296 $\pm$ 24,,,,,,,,,,,,No mechanical data,,,,,110
805,J115,10.1016/j.msea.2019.01.088,Fe49.7Mn30Co10Cr10B0.3,FCC + BCP,M,AC,,,282 $\pm$ 15,,,,,,,,,,,,,,,,,110
806,J115,10.1016/j.msea.2019.01.088,Fe49.4Mn30Co10Cr10B0.6,FCC + BCP,M,AC,,,306 $\pm$ 24,,,,,,,,,,,,,,,,,110
807,J115,10.1016/j.msea.2019.01.088,Fe48.3Mn30Co10Cr10B1.7,FCC + BCP,M,AC,,,452 $\pm$ 51,,,,,,,,,,,,,,,,,110
808,J116,10.1016/j.msea.2019.01.083,Fe40.4Ni11.3Mn34.8Al7.5Cr6,,,AC,,,,T,25.0,159 $\pm$ 11,535 $\pm$ 21,,40.8 $\pm$ 3,,,,,,,,,,,111
809,J116,10.1016/j.msea.2019.01.083,Fe40.4Ni11.3Mn34.8Al7.5Cr6,,M,A,,,,T,25.0,409 $\pm$ 12,584 $\pm$ 26,,10.5 $\pm$ 3,,,,,,marked as multiphase,,,,,111
810,J116,10.1016/j.msea.2019.01.083,(Fe40.4Ni11.3Mn34.8Al7.5Cr6)98.9C1.1,,,AC,,,,T,25.0,355 $\pm$ 7,1174 $\pm$ 19,,49.5 $\pm$ 0.6,,,,,,,,,,,111
811,J116,10.1016/j.msea.2019.01.083,(Fe40.4Ni11.3Mn34.8Al7.5Cr6)98.9C1.1,,M,A,,,,T,25.0,954 $\pm$ 49,978 $\pm$ 39,,2 $\pm$ 0.2,,,,,,marked as multiphase,,,,,111
812,J117,10.1007/s00339-019-2484-1,TiZrHf,2HCP,M,AC,,,211,C,25.0,773,,17,,,,,,,changed to two HCP phases,,,,,112
813,J117,10.1007/s00339-019-2484-1,TiZrHfSc,2HCP,M,AC,,,233,C,25.0,1001,,21.9,,,,,,,changed to two HCP phases,,,,,112
814,J117,10.1007/s00339-019-2484-1,TiZrHfY,2HCP,M,AC,,,241,C,25.0,554,,17.7,,,,,,,changed to two HCP phases,,,,,112
815,J117,10.1007/s00339-019-2484-1,TiZrHfScY,2HCP,M,AC,,,256,C,25.0,793,,15.7,,,,,,,changed to two HCP phases,,,,,112
816,J118,10.1007/s10853-018-03196-8,NiCoFeCrGa,FCC + BCC,M,AC,,,,,,,,,,,,,,,Induction Melting,,,,,113
817,J119,10.1007/s00339-019-2506-z,Co30Cr10Fe10Al18Ni32,FCC + BCC,M,AC,,,305.4 $\pm$ 6.1,C,25.0,1129.4,,16.7,,,,,,,,,,,,114
818,J119,10.1007/s00339-019-2506-z,Co30Cr10Fe10Al18Ni31Mo1,FCC + BCC,M,AC,,,357.3 $\pm$ 9.4,C,25.0,1159.7,,18.2,,,,,,,,,,,,114
819,J119,10.1007/s00339-019-2506-z,Co30Cr10Fe10Al18Ni30Mo2,FCC + BCC,M,AC,,,362.6 $\pm$ 8.2,C,25.0,1250.8,,14.7,,,,,,,,,,,,114
820,J119,10.1007/s00339-019-2506-z,Co30Cr10Fe10Al18Ni29Mo3,FCC + BCC,M,AC,,,359.7 $\pm$ 4.7,C,25.0,1198.3,,14.5,,,,,,,,,,,,114
821,J120,10.3390/met9030351,Fe24.1Co24.1Cr24.1Ni24.1Mo3.6,FCC + sigma,M,SPS,,,210,,,,,,,,,,,,"No mechanical data, changed to multiphase",,,,,116
822,J121,10.1007/s11665-018-3837-1,CoCrCuFeNi,FCC,S,AC,,,,C,25.0,300,,50.2,,,,,,,,,,,,117
823,J121,10.1007/s11665-018-3837-1,(CoCrCuFeNi)96V4,FCC + Cu phase,M,AC,,,,C,25.0,303,,50.2,,,,,,,changed to multiphase,,,,,117
824,J121,10.1007/s11665-018-3837-1,(CoCrCuFeNi)92V8,FCC + Cu phase,M,AC,,,,C,25.0,307,,50.2,,,,,,,changed to multiphase,,,,,117
825,J121,10.1007/s11665-018-3837-1,(CoCrCuFeNi)88V12,FCC + Sigma + Cu phase,M,AC,,,,C,25.0,330,,50.2,,,,,,,changed to multiphase,,,,,117
826,J121,10.1007/s11665-018-3837-1,(CoCrCuFeNi)84V16,FCC + Sigma + Cu phase,M,AC,,,,C,25.0,616,,28,,,,,,,changed to multiphase,,,,,117
827,J122,10.3390/e21020122,CoCrNiCuZn,BCC+FCC,M,SPS,500,,,C,25.0,,,,,,,,,,600,,,5.26,,118
828,J122,10.3390/e21020122,CoCrNiCuZn,BCC+FCC,M,SPS,500,,,C,25.0,,,,,,,,,,700,,,6.26,,118
829,J122,10.3390/e21020122,CoCrNiCuZn,BCC+FCC,M,SPS,500,,,C,25.0,,,,,,,,,,800,,,7.84,,118
830,J122,10.3390/e21020122,CoCrNiCuZn,FCC+FCC,M,SPS,500,,615,C,25.0,2121,,,,,,,,,sintered at 900C,,,7.89,,118
831,J123,10.3390/e21020114,HfNbTaTiZr,BCC,S,AC,500,,359,T,25.0,1155,1212,12.3,,,59,,,,,,,,,119
832,J123,10.3390/e21020114,NbTaTiZr,BCC,S,AC,500,,358,T,25.0,1144,1205,6.4,,,98,,,,,,,,,119
833,J123,10.3390/e21020114,NbTaTi,BCC,S,AC,500,,246,T,25.0,620,683,18.5,,,143,,,,,,,,,119
834,J123,10.3390/e21020114,TaTiZr,BCC + ,M,AC,500,,485,T,25.0,,284,0,,,157,,,,changed to multiphase,,,,,119
835,J123,10.3390/e21020114,NbTiZr,BCC,S,AC,500,,295,T,25.0,956,991,14.2,,,88,,,,,,,,,119
836,J123,10.3390/e21020114,Nb1.5TaTiZr0.5,BCC + ,M,AC,500,,294,T,25.0,822,852,0.33,,,127,,,,changed to multiphase,,,,,119
837,J123,10.3390/e21020114,Nb0.5TaTiZr1.5,BCC + ,M,AC,500,,489,T,25.0,,843,0,,,93,,,,changed to multiphase,,,,,119
838,J124,10.1016/j.msea.2018.12.020,AgAlNbTiZn,,M,A,,,,,,,,,,,,,,,changed to multiphase,,,4.75,,120
839,J124,10.1016/j.msea.2018.12.020,AgAlNbTiZn,,M,A,,,,,,,,,,,,,,,changed to multiphase,,,5.78,,120
840,J124,10.1016/j.msea.2018.12.020,AgAlNbTiZn,,M,A,,,,,,,,,,,,,,,changed to multiphase,,,5.79,,120
841,J124,10.1016/j.msea.2018.12.020,AgAlNbTiZn,,M,A,,,,,,,,,,,,,,,changed to multiphase,,,5.51,,120
842,J124,10.1016/j.msea.2018.12.020,AgAlNbTiZn,,M,A,,,,,,,,,,,,,,,changed to multiphase,,,,,120
843,J125,10.1155/2019/2157592,Fe31Mn28 Ni15Al24,,,AC,,,310,,,,,,,,,,,,,,,,,121
844,J125,10.1155/2019/2157592,Fe31Mn28 Ni15Al24Ti0.8,,,AC,,,330,,,,,,,,,,,,,,,,,121
845,J125,10.1155/2019/2157592,Fe31Mn28 Ni15Al24Ti3,,,AC,,,500,,,,,,,,,,,,,,,,,121
846,J125,10.1155/2019/2157592,Fe31Mn28 Ni15Al24,,,A,,,340,,,,,,,,,,,,,,,,,121
847,J125,10.1155/2019/2157592,Fe31Mn28 Ni15Al24Ti0.8,,,A,,,410,,,,,,,,,,,,,,,,,121
848,J125,10.1155/2019/2157592,Fe31Mn28 Ni15Al24Ti3,,,A,,,495,,,,,,,,,,,,,,,,,121
849,J125,10.1155/2019/2157592,Fe31Mn28 Ni15Al24,,,A,,,330,,,,,,,,,,,,,,,,,121
850,J125,10.1155/2019/2157592,Fe31Mn28 Ni15Al24Ti0.8,,,A,,,330,,,,,,,,,,,,,,,,,121
851,J125,10.1155/2019/2157592,Fe31Mn28 Ni15Al24Ti3,,,A,,,490,,,,,,,,,,,,,,,,,121
852,J126,10.1080/00325899.2019.1576389,AlCrFeNiCoC,FCC + BCC,M,SPS,,,,,,,,,,,,,,,,,,,,122
853,J128,10.1007/s11106-019-00012-z,CrFeNiCuTi,FCC + BCC,M,AC,,,,,,,,,,,,,,,No Mechanical Data,,,,,123
854,J128,10.1007/s11106-019-00012-z,CrFeNiCuTi,FCC + BCC,M,HF + A,,,,,,,,,,,,,,,,,,,,123
855,J128,10.1007/s11106-019-00012-z,CrFeNiCuTi,FCC + BCC,M,HF + A,,,,,,,,,,,,,,,,,,,,123
856,J128,10.1007/s11106-019-00012-z,CrFeNiCuTi,FCC + BCC,M,HF + A,,,,,,,,,,,,,,,,,,,,123
857,J129,10.1080/00325899.2018.1554834,CrMnFeCoNi,FCC  ,S,SPS,0.03,,435 $\pm$ 25,C,25.0,1100,,47,,,,,,,,,,7.753,,124
858,J130,10.1007/s11665-018-3822-8,CuCrFeNiAl0.5,FCC,S,AC,,,226,,,,,,,,,,,,,,,,,126
859,J130,10.1007/s11665-018-3822-8,CuCrFeNiAl0.5,FCC,S,CR + A,,,287,,,,,,,,,,,,,,,,,126
860,J131,10.3390/e21010015,HfMoNbTaTiZr,BCC,S,AC,,,,C,25.0,1512,,12,,,,,,,,,,,,127
861,J131,10.3390/e21010015,HfMoTaTiZr,BCC,S,AC,,,,C,25.0,1600,,4,,,,,,,,,,,,127
862,J131,10.3390/e21010015,HfMoNbTiZr,BCC,S,AC,,,,C,25.0,1351,,20,,,,,,,,,,,,127
863,J131,10.3390/e21010015,HfMoNbTaZr,BCC,S,AC,,,,C,25.0,1524,,16,,,,,,,,,,,,127
864,J131,10.3390/e21010015,HfMoNbTaTi ,BCC,S,AC,,,,C,25.0,1369,,27,,,,,,,,,,,,127
865,J131,10.3390/e21010015,HfMoNbTaTiZr,BCC,S,AC,,,,C,800.0,1007,,,,,,,,,,,,,,127
866,J131,10.3390/e21010015,HfMoTaTiZr,BCC,S,AC,,,,C,800.0,1045,,,,,,,,,,,,,,127
867,J131,10.3390/e21010015,HfMoNbTiZr,BCC,S,AC,,,,C,800.0,829,,,,,,,,,,,,,,127
868,J131,10.3390/e21010015,HfMoNbTaZr,BCC,S,AC,,,,C,800.0,1005,,,,,,,,,,,,,,127
869,J131,10.3390/e21010015,HfMoNbTaTi ,BCC,S,AC,,,,C,800.0,822,,,,,,,,,,,,,,127
870,J131,10.3390/e21010015,HfMoNbTaTiZr,BCC,S,AC,,,,C,1000.0,814,,,,,,,,,,,,,,127
871,J131,10.3390/e21010015,HfMoTaTiZr,BCC,S,AC,,,,C,1000.0,855,,,,,,,,,,,,,,127
872,J131,10.3390/e21010015,HfMoNbTiZr,BCC,S,AC,,,,C,1000.0,721,,,,,,,,,,,,,,127
873,J131,10.3390/e21010015,HfMoNbTaZr,BCC,S,AC,,,,C,1000.0,927,,,,,,,,,,,,,,127
874,J131,10.3390/e21010015,HfMoNbTaTi ,BCC,S,AC,,,,C,1000.0,778,,,,,,,,,,,,,,127
875,J131,10.3390/e21010015,HfMoNbTaTiZr,BCC,S,AC,,,,C,1200.0,556,,,,,,,,,,,,,,127
876,J131,10.3390/e21010015,HfMoTaTiZr,BCC,S,AC,,,,C,1200.0,404,,,,,,,,,,,,,,127
877,J131,10.3390/e21010015,HfMoNbTiZr,BCC,S,AC,,,,C,1200.0,301,,,,,,,,,,,,,,127
878,J131,10.3390/e21010015,HfMoNbTaZr,BCC,S,AC,,,,C,1200.0,694,,,,,,,,,,,,,,127
879,J131,10.3390/e21010015,HfMoNbTaTi ,BCC,S,AC,,,,C,1200.0,699,,,,,,,,,,,,,,127
880,J131,10.3390/e21010015,HfMoNbTaZr,BCC,S,AC,,,,C,1400.0,278,,,,,,,,,,,,,,127
881,J131,10.3390/e21010015,HfMoNbTaTi ,BCC,S,AC,,,,C,1400.0,367,,,,,,,,,,,,,,127
882,J132,10.3390/coatings9010016,CoCrFeNi,FCC,S,VHP,0.0276,,,,,,,,,,,,,,,,,,,128
883,J132,10.3390/coatings9010016,(CoCrFeNi)0.9(WC)0.1,FCC,S,VHP,0.0189,,475,,,,,,,,,,,,,,,7.24 $\pm$ 0.02,,128
884,J132,10.3390/coatings9010016,(CoCrFeNi)0.7(WC)0.3,FCC,S,VHP,0.0182,,531,,,,,,,,,,,,,,,8.39 $\pm$ 0.03,,128
885,J133,10.5755/j01.ms.25.3.19452,Al0.4FeCrCo1.5NiTi0.3,FCC + BCC,M,SPS,,,515 $\pm$ 16,C,25.0,2012 $\pm$ 20,,,17.52 $\pm$ 0.5,,,,,,,,,,,129
886,J134,10.1007/s11661-018-4646-8,HfNbTaTiZr,BCC,S,HIP + CR,,,,T,25.0,1438,,,,,91.5,,,,"Hot Isostatically Pressed, reffered to as ""as-rolled""",,,,,130
887,J134,10.1007/s11661-018-4646-8,HfNbTaTiZr,BCC,S,HIP + CR + A,,,,T,25.0,1159,,,,,99.2,,,,these are true strains elongation and UTS were removed,,,,,130
888,J134,10.1007/s11661-018-4646-8,HfNbTaTiZr,BCC,S,HIP + CR + A,,,,T,25.0,1134,,,,,109.1,,,,,,,,,130
889,J134,10.1007/s11661-018-4646-8,HfNbTaTiZr,BCC,S,HIP + CR + A,,,,T,25.0,1094,,,,,105.3,,,,,,,,,130
890,J134,10.1007/s11661-018-4646-8,HfNbTaTiZr,BCC,S,HIP + CR + A,,,,T,25.0,1071,,,,,91.6,,,,,,,,,130
891,J134,10.1007/s11661-018-4646-8,HfNbTaTiZr,BCC,S,HIP + CR + A,24.4,,,T,25.0,1107,,,,,92.6,,,,,,,,,130
892,J134,10.1007/s11661-018-4646-8,HfNbTaTiZr,BCC,S,HIP + CR + A,31.3,,,T,25.0,1115,,,,,92.6,,,,,,,,,130
893,J134,10.1007/s11661-018-4646-8,HfNbTaTiZr,BCC,S,HIP + CR + A,38.4,,,T,25.0,1114,,,,,101.3,,,,,,,,,130
894,J134,10.1007/s11661-018-4646-8,HfNbTaTiZr,BCC,S,HIP + CR + A,50.1,,,,,,,,,,,,,,,,,,,130
895,J134,10.1007/s11661-018-4646-8,HfNbTaTiZr,BCC,S,HIP + CR + A,21.9,,,,,,,,,,,,,,,,,,,130
896,J134,10.1007/s11661-018-4646-8,HfNbTaTiZr,BCC,S,HIP + CR + A,75.5,,,,,,,,,,,,,,,,,,,130
897,J135,10.1080/02670836.2018.1446267,AlNbTiZr,B2,S,AC,250,,422 $\pm$ 15,C,25.0,1509,,8.6,,,,,,,,,,5.85,,131
898,J135,10.1080/02670836.2018.1446267,AlNbTiZr,B2 + Zr5Al3,M,A,,,418 $\pm$ 15,C,25.0,1579,,17.8,,,,,,,,,,,,131
899,J135-18,10.1016/j.matlet.2015.08.099,AlNbTiVZr0.5,,,,,,,C,25.0,1480,,>50,,,,,,,,,,5.64,,132
900,J135-19,10.1179/1743284715Y.0000000032,AlNbTiZr,,,,,,539.6,C,25.0,1080,,5.9,,,,,,,,,,5.79,,133
901,J135-24,10.1016/j.actamat.2012.11.032,NbTiVZr,,,,,,335,C,25.0,1105,,>50,,,,,,,,,,6.52,,134
902,J135-24,10.1016/j.actamat.2012.11.032,CrNbTiZr,,,,,,418,C,25.0,1260,,6,,,,,,,,,,6.67,,134
903,new_ref_2,10.1088/0256-307X/35/3/036102,AlCrFeNiMo0.5,BCC+B2,M,AC,,,623.7,C,25.0,1914.1,4023.6,,27.9,,,,,,,,,,,264
904,new_ref_2,10.1088/0256-307X/35/3/036102,AlCrFeNiMo0.5Ti0.25,BCC+B2,M,AC,,,712,C,25.0,2161.7,3641.5,,14.3,,,,,,,,,,,264
905,new_ref_2,10.1088/0256-307X/35/3/036102,AlCrFeNiMo0.5Ti0.4,BCC+B2,M,AC,,,731.9,C,25.0,2185.1,3673.4,,14.8,,,,,,,,,,,264
906,new_ref_2,10.1088/0256-307X/35/3/036102,AlCrFeNiMo0.5Ti0.5,BCC+B2,M,AC,,,751.7,C,25.0,2228.7,3166.2,,10.4,,,,,,,,,,,264
907,new_ref_2,10.1088/0256-307X/35/3/036102,AlCrFeNiMo0.5Ti0.6,BCC+B2,M,AC,,,756.1,C,25.0,1314.5,1314.5,,,,,,,,,,,,,264
908,new_ref_2,10.1088/0256-307X/35/3/036102,AlCrFeNiMo0.5Ti0.75,BCC+B2,M,AC,,,766.2,C,25.0,618.8,618.8,,,,,,,,,,,,,264
909,new_ref_4,10.1016/j.matdes.2018.06.003,AlCrMoNb,Laves (C14)+A15,M,A,,,,,,,,,,,,,,,,,,,,265
910,new_ref_4,10.1016/j.matdes.2018.06.003,AlCrMoNb,Laves (C14)+A15,M,AC,,,,,,,,,,,,,,,,,,,,265
911,new_ref_4,10.1016/j.matdes.2018.06.003,AlHfNbTi,B2,S,A,,,,,,,,,,,,,,,,,,,,265
912,new_ref_4,10.1016/j.matdes.2018.06.003,AlHfNbTi,B2,S,AC,,,,,,,,,,,,,,,,,,,,265
913,new_ref_4,10.1016/j.matdes.2018.06.003,AlHfTaTi,B2,S,A,,,,,,,,,,,,,,,,,,,,265
914,new_ref_4,10.1016/j.matdes.2018.06.003,AlHfTaTi,B2,S,AC,,,,,,,,,,,,,,,,,,,,265
915,new_ref_4,10.1016/j.matdes.2018.06.003,AlMoNbTi,BCC+A15,M,A,,,,,,,,,,,,,,,,,,,,265
916,new_ref_4,10.1016/j.matdes.2018.06.003,AlMoNbTi,BCC,S,AC,,,509 $\pm$ 18,,,,,,,,,,,,,,,,,265
917,new_ref_4,10.1016/j.matdes.2018.06.003,AlNbTaTi,BCC+A15,M,A,,,,,,,,,,,,,,,,,,,,265
918,new_ref_4,10.1016/j.matdes.2018.06.003,AlNbTaTi,BCC,S,AC,,,458 $\pm$ 10,,,,,,,,,,,,,,,,,265
919,new_ref_4,10.1016/j.matdes.2018.06.003,CrMoTaTi,BCC,S,A,,,555 $\pm$ 24,,,,,,,,,,,,,,,,,265
920,new_ref_4,10.1016/j.matdes.2018.06.003,CrMoTaTi,BCC,S,AC,,,539 $\pm$ 32,,,,,,,,,,,,,,,,,265
921,new_ref_4,10.1016/j.matdes.2018.06.003,CrNbTaTi,BCC+Laves (C15),M,A,,,,,,,,,,,,,,,,,,,,265
922,new_ref_4,10.1016/j.matdes.2018.06.003,CrNbTaTi,BCC,S,AC,,,495 $\pm$ 26,,,,,,,,,,,,,,,,,265
923,new_ref_4,10.1016/j.matdes.2018.06.003,CrNbTiW,BCC+Laves (C15),M,A,,,630 $\pm$ 28,,,,,,,,,,,,,,,,,265
924,new_ref_4,10.1016/j.matdes.2018.06.003,CrNbTiW,BCC,S,AC,,,630 $\pm$ 24,,,,,,,,,,,,,,,,,265
925,new_ref_4,10.1016/j.matdes.2018.06.003,HfNbTaTi,BCC,S,A,,,280 $\pm$ 10,,,,,,,,,,,,,,,,,265
926,new_ref_4,10.1016/j.matdes.2018.06.003,HfNbTaTi,BCC,S,AC,,,270 $\pm$ 5,,,,,,,,,,,,,,,,,265
927,new_ref_4,10.1016/j.matdes.2018.06.003,MoNbTaTiW,BCC,S,A,,,482 $\pm$ 10,,,,,,,,,,,,,,,,,265
928,new_ref_4,10.1016/j.matdes.2018.06.003,MoNbTaTiW,BCC,S,AC,,,446 $\pm$ 32,,,,,,,,,,,,,,,,,265
929,new_ref_4,10.1016/j.matdes.2018.06.003,MoNbTaTi,BCC,S,A,,,407 $\pm$ 17,,,,,,,,,,,,,,,,,265
930,new_ref_4,10.1016/j.matdes.2018.06.003,MoNbTaTi,BCC,S,AC,,,431 $\pm$ 7,,,,,,,,,,,,,,,,,265