,REFERENCE: tag,REFERENCE: doi,FORMULA,PROPERTY: Type of phases,PROPERTY: Single/Multiphase,PROPERTY: synthesis method,PROPERTY: grain size ($\mu$m),PROPERTY: ROM Density (g/cm$^3$),PROPERTY: HV,PROPERTY: Type of test,PROPERTY: Test temperature ($^\circ$C),PROPERTY: YS (MPa),PROPERTY: UTS (MPa),PROPERTY: Elongation (%),PROPERTY: Elongation plastic (%),PROPERTY: ROM Young modulus (GPa),PROPERTY: Exp. Young modulus (GPa),PROPERTY: O content (wppm),PROPERTY: N content (wppm),PROPERTY: C content (wppm),REFERENCE: comment,Internal Reference #,Original DOI,PROPERTY: Exp. Density (g/cm$^3$),Unnamed: 22,IDENTIFIER: Reference ID
491,J61-57,10.1016/j.jallcom.2018.07.346,AlCo0.75CrFeNi,,,,,,,C,25.0,1331,,20,,,,,,,"Extracted Engineering Values from Table 4, comes from multiple other references",57.0,10.1016/j.jallcom.2018.07.346,,,228
492,J61-57,10.1016/j.jallcom.2018.07.346,AlCoCrFeNi,,,,,,,C,25.0,1313,,19,,,,,,,"Extracted Engineering Values from Table 4, comes from multiple other references",57.0,10.1016/j.jallcom.2018.07.346,,,228
493,J61-58,10.1016/j.intermet.2016.09.003,CoCrFeMn,,,,,,,C,25.0,338,,4.3,,,,,,,"Extracted Engineering Values from Table 4, comes from multiple other references",58.0,10.1016/j.intermet.2016.09.003,,,229
494,J63,10.1016/j.jallcom.2019.06.301,AlCoCrFeNi,FCC + BCC,M,GA+A,,,,,,,,,,,,,,,Gas Atomization,,,,,230
495,J63,10.1016/j.jallcom.2019.06.301,AlCoCrFeNi,FCC + BCC,M,GA+A,,,,,,,,,,,,,,,Gas Atomization,,,,,230
496,J63,10.1016/j.jallcom.2019.06.301,AlCoCrFeNi,FCC + BCC,M,GA+A,,,,,,,,,,,,,,,Gas Atomization,,,,,230
497,J63,10.1016/j.jallcom.2019.06.301,AlCoCrFeNi,FCC + BCC,M,GA+A,,,,,,,,,,,,,,,Gas Atomization,,,,,230
498,J63,10.1016/j.jallcom.2019.06.301,AlCoCrFeNi,FCC + BCC,M,GA+A,,,,,,,,,,,,,,,Gas Atomization,,,,,230
499,J64,10.1016/j.jallcom.2019.06.138,HfNbTaTiZrW,BCC + Laves,M,AC,29.4,,,C,25.0,1550,,26.3,,,,,,,,,,,,231
500,J64,10.1016/j.jallcom.2019.06.138,HfNbTaTiZrMoW,BCC + Laves,M,AC,31.7,,,C,25.0,1637,,15.5,,,,,,,,,,,,231
501,J64,10.1016/j.jallcom.2019.06.138,HfNbTaTiZrW,BCC + Laves,M,AC,,,,C,800.0,577,,>35,,,,,,,,,,,,231
502,J64,10.1016/j.jallcom.2019.06.138,HfNbTaTiZrMoW,BCC + Laves,M,AC,,,,C,800.0,1065,,>35,,,,,,,,,,,,231
503,J64,10.1016/j.jallcom.2019.06.138,HfNbTaTiZrW,BCC + Laves,M,AC,,,,C,1000.0,409,,>35,,,,,,,,,,,,231
504,J64,10.1016/j.jallcom.2019.06.138,HfNbTaTiZrMoW,BCC + Laves,M,AC,,,,C,1000.0,736,,>35,,,,,,,,,,,,231
505,J64,10.1016/j.jallcom.2019.06.138,HfNbTaTiZrW,BCC + Laves,M,AC,,,,C,1200.0,345,,>35,,,,,,,,,,,,231
506,J64,10.1016/j.jallcom.2019.06.138,HfNbTaTiZrMoW,BCC + Laves,M,AC,,,,C,1200.0,703,,>35,,,,,,,,,,,,231
507,J65,10.1007/s12598-019-01310-6,NbZrTi,BCC,S,AC,,,372,C,25.0,1223,,48,,,,,,,,,,,,232
508,J65,10.1007/s12598-019-01310-6,NbHfZrTi,BCC,S,AC,,,351,C,25.0,1000,,52,,,,,,,,,,,,232
509,J65,10.1007/s12598-019-01310-6,NbZrTi,BCC,S,A,300,,,,,,,,,,,,,,,,,,,232
510,J65,10.1007/s12598-019-01310-6,NbHfZrTi,BCC,S,A,50,,,,,,,,,,,,,,,,,,,232
511,J65,10.1007/s12598-019-01310-6,NbZrTi,BCC,S,AC,,,,C,1073.0,462,,51,,,,,,,Added total elongation values according to Fig 6,,,,,232
512,J65,10.1007/s12598-019-01310-6,NbHfZrTi,BCC,S,AC,,,,C,1073.0,303,,51,,,,,,,Added total elongation values according to Fig 6,,,,,232
513,J65,10.1007/s12598-019-01310-6,NbZrTi,BCC,S,AC,,,,C,1273.0,218,,51,,,,,,,Added total elongation values according to Fig 6,,,,,232
514,J65,10.1007/s12598-019-01310-6,NbHfZrTi,BCC,S,AC,,,,C,1273.0,154,,51,,,,,,,Added total elongation values according to Fig 6,,,,,232
515,J66,10.1016/j.intermet.2019.106550,CoCrFeNi,FCC,S,AC,,,168.9,C,25.0,163,,80,,,,,,,,,,,,233
516,J66,10.1016/j.intermet.2019.106550,CoCrFeNiW0.2,FCC,S,AC,,,244,C,25.0,335,,52,,,,,,,,,,,,233
517,J66,10.1016/j.intermet.2019.106550,CoCrFeNiW0.5,FCC + $\mu$,M,AC,,,357.9,C,25.0,556,,35.6,,,,,,,,,,,,233
518,J67,10.1007/s40195-019-00935-x,MoNbFeCrV,BCC + Laves,M,AC,,,826,C,25.0,2663,,2.7,,,,,,,added hardness vickers from text,,,,,234
519,J67,10.1007/s40195-019-00935-x,MoNbFeCrTi,BCC + Laves,M,AC,,,792,C,25.0,1647,,0.9,,,,,,,added hardness vickers from text,,,,,234
520,J67,10.1007/s40195-019-00935-x,MoNbFeVTi,BCC + B2,M,AC,,,699,C,25.0,1707,,1.7,,,,,,,added hardness vickers from text,,,,,234
521,J68,10.1016/j.matchar.2019.109792,Al0.3Cu0.5FeCrNi2,FCC,S,CR + A,,,107,T,62.0,169,,98,,,16.6,,,,,,,,,235
522,J68,10.1016/j.matchar.2019.109792,Al0.3Cu0.5FeCrNi2,FCC + L12,M,CR + A,,,209,T,350.0,642,,73,,,47,,,,,,,,,235
523,J68,10.1016/j.matchar.2019.109792,Al0.3Cu0.5FeCrNi2,FCC + L12 + M23C6,M,CR + A,,,321,T,535.0,904,,39,,,35.2,,,,,,,,,235
524,J68,10.1016/j.matchar.2019.109792,Al0.3Cu0.5FeCrNi2,FCC + L12 + M23C6,M,CR + A,,,159,T,255.0,584,,88,,,51.4,,,,,,,,,235
525,J69,10.1016/j.jallcom.2019.05.322,HfNbTaTiZr,BCC,S,CR + A,60,,,,20.0,,,,,,88.9,,,,Paper focused on Young's Modulus,,,,,236
526,J69,10.1016/j.jallcom.2019.05.322,HfNbTaTiZr,BCC,S,CR + A,,,,,40.0,,,,,,88.6,,,,,,,,,236
527,J69,10.1016/j.jallcom.2019.05.322,HfNbTaTiZr,BCC,S,CR + A,,,,,60.0,,,,,,88.4,,,,,,,,,236
528,J69,10.1016/j.jallcom.2019.05.322,HfNbTaTiZr,BCC,S,CR + A,,,,,80.0,,,,,,88.1,,,,,,,,,236
529,J69,10.1016/j.jallcom.2019.05.322,HfNbTaTiZr,BCC,S,CR + A,,,,,100.0,,,,,,87.9,,,,,,,,,236
530,J69,10.1016/j.jallcom.2019.05.322,HfNbTaTiZr,BCC,S,CR + A,,,,,120.0,,,,,,87.7,,,,,,,,,236
531,J69,10.1016/j.jallcom.2019.05.322,HfNbTaTiZr,BCC,S,CR + A,,,,,140.0,,,,,,87.5,,,,,,,,,236
532,J69,10.1016/j.jallcom.2019.05.322,HfNbTaTiZr,BCC,S,CR + A,,,,,160.0,,,,,,87.3,,,,,,,,,236
533,J69,10.1016/j.jallcom.2019.05.322,HfNbTaTiZr,BCC,S,CR + A,,,,,180.0,,,,,,87.1,,,,,,,,,236
534,J69,10.1016/j.jallcom.2019.05.322,HfNbTaTiZr,BCC,S,CR + A,,,,,200.0,,,,,,86.9,,,,,,,,,236
535,J69,10.1016/j.jallcom.2019.05.322,HfNbTaTiZr,BCC,S,CR + A,,,,,220.0,,,,,,86.7,,,,,,,,,236
536,J69,10.1016/j.jallcom.2019.05.322,HfNbTaTiZr,BCC,S,CR + A,,,,,240.0,,,,,,86.5,,,,,,,,,236
537,J69,10.1016/j.jallcom.2019.05.322,HfNbTaTiZr,BCC,S,CR + A,,,,,260.0,,,,,,86.3,,,,,,,,,236
538,J69,10.1016/j.jallcom.2019.05.322,HfNbTaTiZr,BCC,S,CR + A,,,,,280.0,,,,,,86.1,,,,,,,,,236
539,J69,10.1016/j.jallcom.2019.05.322,HfNbTaTiZr,BCC,S,CR + A,,,,,300.0,,,,,,85.8,,,,,,,,,236
540,J69,10.1016/j.jallcom.2019.05.322,HfNbTaTiZr,BCC,S,CR + A,,,,,320.0,,,,,,85.5,,,,,,,,,236
541,J69,10.1016/j.jallcom.2019.05.322,HfNbTaTiZr,BCC,S,CR + A,,,,,340.0,,,,,,85.2,,,,,,,,,236
542,J69,10.1016/j.jallcom.2019.05.322,HfNbTaTiZr,BCC,S,CR + A,,,,,360.0,,,,,,84.9,,,,,,,,,236
543,J69,10.1016/j.jallcom.2019.05.322,HfNbTaTiZr,BCC,S,CR + A,,,,,380.0,,,,,,84.5,,,,,,,,,236
544,J69,10.1016/j.jallcom.2019.05.322,HfNbTaTiZr,BCC,S,CR + A,,,,,400.0,,,,,,84.2,,,,,,,,,236
545,J69,10.1016/j.jallcom.2019.05.322,HfNbTaTiZr,BCC,S,CR + A,,,,,420.0,,,,,,83.8,,,,,,,,,236
546,J69,10.1016/j.jallcom.2019.05.322,HfNbTaTiZr,BCC,S,CR + A,,,,,440.0,,,,,,83.5,,,,,,,,,236
547,J69,10.1016/j.jallcom.2019.05.322,HfNbTaTiZr,BCC,S,CR + A,,,,,460.0,,,,,,83.1,,,,,,,,,236
548,J69,10.1016/j.jallcom.2019.05.322,HfNbTaTiZr,BCC,S,CR + A,,,,,480.0,,,,,,82.7,,,,,,,,,236
549,J69,10.1016/j.jallcom.2019.05.322,HfNbTaTiZr,BCC,S,CR + A,,,,,500.0,,,,,,82.3,,,,,,,,,236
550,J69,10.1016/j.jallcom.2019.05.322,HfNbTaTiZr,BCC,S,CR + A,,,,,520.0,,,,,,81.9,,,,,,,,,236
551,J69,10.1016/j.jallcom.2019.05.322,HfNbTaTiZr,BCC,S,CR + A,,,,,540.0,,,,,,81.6,,,,,,,,,236
552,J69,10.1016/j.jallcom.2019.05.322,HfNbTaTiZr,BCC,S,CR + A,,,,,560.0,,,,,,81.3,,,,,,,,,236
553,J69,10.1016/j.jallcom.2019.05.322,HfNbTaTiZr,BCC,S,CR + A,,,,,580.0,,,,,,81,,,,,,,,,236
554,J69,10.1016/j.jallcom.2019.05.322,HfNbTaTiZr,BCC,S,CR + A,,,,,600.0,,,,,,80.7,,,,,,,,,236
555,J69,10.1016/j.jallcom.2019.05.322,HfNbTaTiZr,BCC,S,CR + A,,,,,620.0,,,,,,80.4,,,,,,,,,236
556,J69,10.1016/j.jallcom.2019.05.322,HfNbTaTiZr,BCC,S,CR + A,,,,,640.0,,,,,,80.2,,,,,,,,,236
557,J69,10.1016/j.jallcom.2019.05.322,HfNbTaTiZr,BCC,S,CR + A,,,,,660.0,,,,,,80,,,,,,,,,236
558,J69,10.1016/j.jallcom.2019.05.322,HfNbTaTiZr,BCC,S,CR + A,,,,,680.0,,,,,,79.8,,,,,,,,,236
559,J69,10.1016/j.jallcom.2019.05.322,HfNbTaTiZr,BCC,S,CR + A,,,,,700.0,,,,,,79.6,,,,,,,,,236
560,J69,10.1016/j.jallcom.2019.05.322,HfNbTaTiZr,BCC,S,CR + A,,,,,720.0,,,,,,79.3,,,,,,,,,236
561,J69,10.1016/j.jallcom.2019.05.322,HfNbTaTiZr,BCC,S,CR + A,,,,,740.0,,,,,,79,,,,,,,,,236
562,J69,10.1016/j.jallcom.2019.05.322,HfNbTaTiZr,BCC,S,CR + A,,,,,760.0,,,,,,78.7,,,,,,,,,236
563,J69,10.1016/j.jallcom.2019.05.322,HfNbTaTiZr,BCC,S,CR + A,,,,,780.0,,,,,,78.4,,,,,,,,,236
564,J69,10.1016/j.jallcom.2019.05.322,HfNbTaTiZr,BCC,S,CR + A,,,,,800.0,,,,,,78.1,,,,,,,,,236
565,J69,10.1016/j.jallcom.2019.05.322,HfNbTaTiZr,BCC,S,CR + A,,,,,820.0,,,,,,77.7,,,,,,,,,236
566,J69,10.1016/j.jallcom.2019.05.322,HfNbTaTiZr,BCC,S,CR + A,,,,,840.0,,,,,,77.4,,,,,,,,,236
567,J70,10.1016/j.msea.2019.138181,CoCrFeNiTi0.3,FCC,S,A + HR,90,,263,T,25.0,540,772,60,,,,,,,rearranged order of processing; fixed grain size,,,,,238
568,J70,10.1016/j.msea.2019.138181,CoCrFeNiTi0.3,FCC,S,HR + A,216,,185,,,,,,,,,,,,rearranged order of processing; fixed grain size,,,,,238
569,J70,10.1016/j.msea.2019.138181,Co0.5CrFeNi1.5Ti0.3,FCC,S,HR + A,263,,197,,,,,,,,,,,,added in T dependant data,,,,,238
570,J70,10.1016/j.msea.2019.138181,Co0.5CrFeNi1.5Ti0.3,FCC,S,A + HR,90,,308,T,25.0,586,875,46,,,,,,,added in T dependant data,,,,,238
571,J70,10.1016/j.msea.2019.138181,CrFeNi2Ti0.3,FCC,S,A + HR,90,,335,T,25.0,672,982,37,,,,,,,rearranged order of processing; fixed grain size,,,,,238
572,J70,10.1016/j.msea.2019.138181,CrFeNi2Ti0.3,FCC,S,HR + A,324,,204,,,,,,,,,,,,added in T dependant data,,,,,238
573,J71,10.1016/j.msea.2019.138140,Nb25Mo25Ta25W25,BCC,S,S ,,,830,,,,,,,,,,,,No mechanical data; original data in GPA,,,,,239
574,J71,10.1016/j.msea.2019.138140,Nb25Mo25Ta25W25,BCC,S,S + A,,,1450,,,,,,,,,,,,added sintering as a processing type; original data in GPA,,,,,239
575,J71,10.1016/j.msea.2019.138140,Nb25Mo25Ta25W25,BCC,S,S + A,,,1630,,,,,,,,,,,,original data in GPA,,,,,239
576,J71,10.1016/j.msea.2019.138140,Nb25Mo25Ta25W25,BCC,S,S + A,,,815,,,,,,,,,,,,original data in GPA,,,,,239
577,J71,10.1016/j.msea.2019.138140,Nb25Mo25Ta25W25,BCC + Carbide,M,S + A,,,700,,,,,,,,,,,,original data in GPA,,,,,239
578,J72,10.1016/j.actamat.2019.06.006,NbTaTi,BCC,S,CR + A ,,,,C,20.0,573,,,,,,100.0,<5,,changed processing to CR + A; fixed yield strengths,,,,,240
579,J72,10.1016/j.actamat.2019.06.006,NbTaTi,BCC,S,CR + A ,,,,C,100.0,486,,,,,,100.0,<5,,changed processing to CR + A; fixed yield strengths,,,,,240
580,J72,10.1016/j.actamat.2019.06.006,NbTaTi,BCC,S,CR + A ,,,,C,200.0,378,,,,,,100.0,<5,,changed processing to CR + A; fixed yield strengths,,,,,240
581,J72,10.1016/j.actamat.2019.06.006,NbTaTi,BCC,S,CR + A ,,,,C,300.0,314,,,,,,100.0,<5,,changed processing to CR + A; fixed yield strengths,,,,,240
582,J72,10.1016/j.actamat.2019.06.006,NbTaTi,BCC,S,CR + A ,,,,C,400.0,232,,,,,,100.0,<5,,changed processing to CR + A; fixed yield strengths,,,,,240
583,J72,10.1016/j.actamat.2019.06.006,NbTaTi,BCC,S,CR + A ,,,,C,600.0,222,,,,,,100.0,<5,,changed processing to CR + A; fixed yield strengths,,,,,240
584,J72,10.1016/j.actamat.2019.06.006,NbTaTi,BCC,S,CR + A ,,,,C,800.0,210,,,,,,100.0,<5,,changed processing to CR + A; fixed yield strengths,,,,,240
585,J72,10.1016/j.actamat.2019.06.006,NbTaTi,BCC,S,CR + A ,,,,C,1000.0,160,,,,,,100.0,<5,,changed processing to CR + A; fixed yield strengths,,,,,240
586,J72,10.1016/j.actamat.2019.06.006,AlNbTaTi,BCC,S,AC,,,,C,20.0,1152,,,,,,180.0,<5,,fixed yield strengths,,,,,240
587,J72,10.1016/j.actamat.2019.06.006,AlNbTaTi,BCC,S,AC,,,,C,200.0,740,,,,,,180.0,<5,,fixed yield strengths,,,,,240
588,J72,10.1016/j.actamat.2019.06.006,AlNbTaTi,BCC,S,AC,,,,C,100.0,740,,,,,,180.0,<5,,fixed yield strengths,,,,,240
589,J72,10.1016/j.actamat.2019.06.006,MoNbTaTi,BCC,S,A,,,,C,20.0,1210,,,,,,80.0,<5,,fixed yield strengths,,,,,240
590,J72,10.1016/j.actamat.2019.06.006,MoNbTaTi,BCC,S,A,,,,C,60.0,1071,,,,,,80.0,<5,,fixed yield strengths,,,,,240
591,J72,10.1016/j.actamat.2019.06.006,MoNbTaTi,BCC,S,A,,,,C,100.0,1029,,,,,,80.0,<5,,fixed yield strengths,,,,,240
592,J72,10.1016/j.actamat.2019.06.006,MoNbTaTi,BCC,S,A,,,,C,200.0,868,,,,,,80.0,<5,,fixed yield strengths,,,,,240
593,J72,10.1016/j.actamat.2019.06.006,MoNbTaTi,BCC,S,A,,,,C,300.0,732,,,,,,80.0,<5,,fixed yield strengths,,,,,240
594,J72,10.1016/j.actamat.2019.06.006,MoNbTaTi,BCC,S,A,,,,C,400.0,685,,,,,,80.0,<5,,fixed yield strengths,,,,,240
595,J72,10.1016/j.actamat.2019.06.006,MoNbTaTi,BCC,S,A,,,,C,600.0,593,,,,,,80.0,<5,,fixed yield strengths,,,,,240
596,J72,10.1016/j.actamat.2019.06.006,MoNbTaTi,BCC,S,A,,,,C,800.0,564,,,,,,80.0,<5,,fixed yield strengths,,,,,240
597,J72,10.1016/j.actamat.2019.06.006,MoNbTaTi,BCC,S,A,,,,C,1000.0,539,,,,,,80.0,<5,,fixed yield strengths,,,,,240
598,J72,10.1016/j.actamat.2019.06.006,WNbTaTi,BCC,S,A,,,,C,20.0,1054,,,,,,90.0,<5,,fixed yield strengths,,,,,240
599,J72,10.1016/j.actamat.2019.06.006,WNbTaTi,BCC,S,A,,,,C,100.0,968,,,,,,90.0,<5,,fixed yield strengths,,,,,240
600,J72,10.1016/j.actamat.2019.06.006,WNbTaTi,BCC,S,A,,,,C,200.0,869,,,,,,90.0,<5,,fixed yield strengths,,,,,240
601,J72,10.1016/j.actamat.2019.06.006,WNbTaTi,BCC,S,A,,,,C,300.0,754,,,,,,90.0,<5,,fixed yield strengths,,,,,240
602,J72,10.1016/j.actamat.2019.06.006,WNbTaTi,BCC,S,A,,,,C,400.0,627,,,,,,90.0,<5,,fixed yield strengths,,,,,240
603,J72,10.1016/j.actamat.2019.06.006,WNbTaTi,BCC,S,A,,,,C,600.0,596,,,,,,90.0,<5,,fixed yield strengths,,,,,240
604,J72,10.1016/j.actamat.2019.06.006,WNbTaTi,BCC,S,A,,,,C,800.0,564,,,,,,90.0,<5,,fixed yield strengths,,,,,240
605,J72,10.1016/j.actamat.2019.06.006,WNbTaTi,BCC,S,A,,,,C,1000.0,459,,,,,,90.0,<5,,fixed yield strengths,,,,,240
606,J72,10.1016/j.actamat.2019.06.006,HfNbTaTi,BCC,S,A,,,,C,20.0,860,,,,,,160.0,<5,,fixed yield strengths,,,,,240
607,J72,10.1016/j.actamat.2019.06.006,HfNbTaTi,BCC,S,A,,,,C,20.0,834,,,,,,160.0,<5,,fixed yield strengths,,,,,240
608,J72,10.1016/j.actamat.2019.06.006,HfNbTaTi,BCC,S,A,,,,C,200.0,610,,,,,,160.0,<5,,fixed yield strengths,,,,,240
609,J72,10.1016/j.actamat.2019.06.006,HfNbTaTi,BCC,S,A,,,,C,600.0,473,,,,,,160.0,<5,,fixed yield strengths,,,,,240
610,J72,10.1016/j.actamat.2019.06.006,CrNbMoTi,BCC,S,A,,,,C,20.0,1630,,,,,,260.0,<5,,fixed yield strengths,,,,,240
611,J72,10.1016/j.actamat.2019.06.006,CrNbMoTi,BCC,S,A,,,,C,200.0,1268,,,,,,260.0,<5,,fixed yield strengths,,,,,240
612,J72,10.1016/j.actamat.2019.06.006,CrNbMoTi,BCC,S,A,,,,C,400.0,1115,,,,,,260.0,<5,,fixed yield strengths,,,,,240
613,J72,10.1016/j.actamat.2019.06.006,CrNbMoTi,BCC,S,A,,,,C,600.0,1062,,,,,,260.0,<5,,fixed yield strengths,,,,,240
614,J72,10.1016/j.actamat.2019.06.006,CrNbMoTi,BCC,S,A,,,,C,800.0,1058,,,,,,260.0,<5,,fixed yield strengths,,,,,240
615,J72,10.1016/j.actamat.2019.06.006,CrMoTaTi,BCC + Laves,M,A,,,,C,20.0,1795,,,,,,200.0,<5,,fixed yield strengths,,,,,240
616,J72,10.1016/j.actamat.2019.06.006,CrMoTaTi,BCC + Laves,M,A,,,,C,100.0,1506,,,,,,200.0,<5,,fixed yield strengths,,,,,240
617,J72,10.1016/j.actamat.2019.06.006,CrMoTaTi,BCC + Laves,M,A,,,,C,200.0,1266,,,,,,200.0,<5,,fixed yield strengths,,,,,240
618,J72,10.1016/j.actamat.2019.06.006,CrMoTaTi,BCC + Laves,M,A,,,,C,300.0,1183,,,,,,200.0,<5,,fixed yield strengths,,,,,240
619,J72,10.1016/j.actamat.2019.06.006,CrMoTaTi,BCC + Laves,M,A,,,,C,400.0,1175,,,,,,200.0,<5,,fixed yield strengths,,,,,240
620,J72,10.1016/j.actamat.2019.06.006,CrMoTaTi,BCC + Laves,M,A,,,,C,600.0,1162,,,,,,200.0,<5,,fixed yield strengths,,,,,240
621,J72,10.1016/j.actamat.2019.06.006,CrMoTaTi,BCC + Laves,M,A,,,,C,800.0,1162,,,,,,200.0,<5,,fixed yield strengths,,,,,240
622,J72,10.1016/j.actamat.2019.06.006,CrMoTaTi,BCC + Laves,M,A,,,,C,1000.0,1159,,,,,,200.0,<5,,fixed yield strengths,,,,,240
623,J74,10.1007/s40195-019-00921-3,Ti2ZrHf0.5V,BCC,S,AC,,,338.3,C,25.0,1160,,>50,,,,,,,,,,,,241
624,J74,10.1007/s40195-019-00921-3,Ti2ZrHf0.5V,BCC,S,AC,,,338.3,C,600.0,405,,>50,,,,,,,added high temperature data,,,,,241
625,J74,10.1007/s40195-019-00921-3,Ti2ZrHf0.5V,BCC,S,AC,,,338.3,C,800.0,85,,>50,,,,,,,added high temperature data,,,,,241
626,J74,10.1007/s40195-019-00921-3,Ti2ZrHf0.5VNb0.25,BCC,S,AC,,,332.4,C,25.0,1115,,>50,,,,,,,,,,,,241
627,J74,10.1007/s40195-019-00921-3,Ti2ZrHf0.5VNb0.5,BCC,S,AC,,,322.5,C,25.0,1065,,>50,,,,,,,,,,,,241
628,J74,10.1007/s40195-019-00921-3,Ti2ZrHf0.5VNb0.5,BCC,S,AC,,,322.5,C,600.0,718,,>50,,,,,,,added high temperature data,,,,,241
629,J74,10.1007/s40195-019-00921-3,Ti2ZrHf0.5VNb0.5,BCC,S,AC,,,322.5,C,800.0,135,,>50,,,,,,,added high temperature data,,,,,241
630,J74,10.1007/s40195-019-00921-3,Ti2ZrHf0.5VNb0.75,BCC,S,AC,,,318.9,C,25.0,1025,,>50,,,,,,,,,,,,241
631,J74,10.1007/s40195-019-00921-3,Ti2ZrHf0.5VNb,BCC,S,AC,,,310.4,C,25.0,980,,>50,,,,,,,,,,,,241
632,J74,10.1007/s40195-019-00921-3,Ti2ZrHf0.5VNb,BCC,S,AC,,,310.4,C,600.0,859,,>50,,,,,,,added high temperature data,,,,,241
633,J74,10.1007/s40195-019-00921-3,Ti2ZrHf0.5VNb,BCC,S,AC,,,310.4,C,800.0,195,,>50,,,,,,,added high temperature data,,,,,241
634,J75,10.1016/j.matchar.2019.05.043,FeCrCuMnNi,2FCC + BCC,M,CR,,,398,T,25.0,1190,1300,4.3,,,,,,,changed to 2FCC + BCC,,,,,242
635,J75,10.1016/j.matchar.2019.05.043,FeCrCuMnNi,2FCC + BCC,M,CR + A,1.4,,367,T,25.0,1170,1270,10.7,,,,,,,changed to 2FCC + BCC,,,,,242
636,J75,10.1016/j.matchar.2019.05.043,FeCrCuMnNi,2FCC + BCC,M,CR + A,1.5,,312,T,25.0,1030,1190,11.4,,,,,,,changed to 2FCC + BCC,,,,,242
637,J75,10.1016/j.matchar.2019.05.043,FeCrCuMnNi,2FCC + BCC,M,CR + A,1.9,,271,T,25.0,970,1110,12.1,,,,,,,changed to 2FCC + BCC,,,,,242
638,J75,10.1016/j.matchar.2019.05.043,FeCrCuMnNi,2FCC + BCC,M,CR + A,2.2,,183,T,25.0,850,960,14.3,,,,,,,changed to 2FCC + BCC,,,,,242
639,J75,10.1016/j.matchar.2019.05.043,FeCrCuMnNi,2FCC + BCC,M,CR + A,6.5,,162,T,25.0,470,640,34.8,,,,,,,changed to 2FCC + BCC,,,,,242
640,J76,10.1016/j.matlet.2019.04.012,CoCrFeNi2.1Nb0.2,FCC + Laves,M,AC,,,,T,25.0,170,537,32,,,,,,,,,,,,243
641,J76,10.1016/j.matlet.2019.04.012,CoCrFeNi2.1Nb0.4,FCC + Laves,M,AC,,,,T,25.0,640,840,7,,,,,,,,,,,,243
642,J76,10.1016/j.matlet.2019.04.012,CoCrFeNi2.1Nb0.2,FCC + Laves + D019,M,A,,,,T,25.0,560,860,19,,,,,,,,,,,,243
643,J76,10.1016/j.matlet.2019.04.012,CoCrFeNi2.1Nb0.4,FCC + Laves,M,A,,,,T,25.0,,,3,,,,,,,,,,,,243
644,J77,10.1007/s40195-019-00916-0,(CoCrFeMnNi)95C5,FCC + M23C6,M,A,,,345,C,800.0,,,,,,,,,,,,,,,244
645,J77,10.1007/s40195-019-00916-0,(CoCrFeMnNi)95C5,FCC + M23C6,M,A,,,285,C,1000.0,,,,,,,,,,,,,,,244
646,J78,10.1016/j.matchar.2019.05.022,AlCoCrFeNi,BCC + FCC,M,SPS,10.21,,550 $\pm$ 12,C,25.0,1221.1 $\pm$ 15,,30,23.2,,,,,,"changed elongation to total elongation, not plastic",,,,,245
647,J78,10.1016/j.matchar.2019.05.022,AlCoCrFeNi,BCC + FCC,M,SPS,15.68,,510 $\pm$ 11,C,25.0,1186.7 $\pm$ 16,,33,26.5,,,,,,"changed elongation to total elongation, not plastic",,,,,245
648,J78,10.1016/j.matchar.2019.05.022,AlCoCrFeNi,BCC + FCC,M,SPS,16.7,,503 $\pm$ 14,C,25.0,1112.9 $\pm$ 20,,30,21.4,,,,,,"changed elongation to total elongation, not plastic",,,,,245
649,J79,10.1007/s11837-019-03432-9,WMoNbCrTi,BCC + Laves,M,SPS,,,,C,25.0,2500,,10,,,,,,,Experimental Variable was ball milling time. ,,,,,246
650,J79,10.1007/s11837-019-03432-9,WMoNbCrTi,BCC + Laves,M,SPS,,,,C,25.0,1260,,4.8,,,,,,,Added Total Elongation Data from Fig 6,,,,,246
651,J79,10.1007/s11837-019-03432-9,WMoNbCrTi,BCC + Laves,M,SPS,,,,C,25.0,1630,,4.85,,,,,,,,,,,,246
652,J79,10.1007/s11837-019-03432-9,WMoNbCrTi,BCC + Laves,M,SPS,,,,C,25.0,2030,,4.3,,,,,,,,,,,,246
653,J79,10.1007/s11837-019-03432-9,WMoNbCrTi,BCC + Laves,M,SPS,,,,C,25.0,1920,,5,,,,,,,,,,,,246
654,J80,10.1088/2053-1591/ab2517,AlCoCrFeNi,BCC + B2,M,SPS,,,,C,25.0,,,,,,,,,,,,,,,248
655,J80,10.1088/2053-1591/ab2517,AlCoCrFeNi,BCC + B2,M,SPS,,,,C,25.0,,,,,,,,,,,,,,,248
656,J80,10.1088/2053-1591/ab2517,AlCoCrFeNi,BCC + B2 + FCC,M,SPS,,,,C,25.0,,,,,,,,,,,,,,,248
657,J80,10.1088/2053-1591/ab2517,AlCoCrFeNi,BCC + B2 + FCC,M,SPS,,,,C,25.0,,,,,,,,,,,,,,,248
658,J80,10.1088/2053-1591/ab2517,AlCoCrFeNi,BCC + B2 + FCC,M,SPS,,,,C,25.0,520,,,,,,,,,,,,,,248
659,J80,10.1088/2053-1591/ab2517,AlCoCrFeNi,BCC + B2 + FCC,M,SPS,,,,C,25.0,1150,,,,,,,,,,,,,,248
660,J80,10.1088/2053-1591/ab2517,AlCoCrFeNi,BCC + B2 + FCC,M,SPS,,,,C,25.0,1287,,,,,,,,,,,,,,248