,REFERENCE: tag,REFERENCE: doi,FORMULA,PROPERTY: Type of phases,PROPERTY: Single/Multiphase,PROPERTY: synthesis method,PROPERTY: grain size ($\mu$m),PROPERTY: ROM Density (g/cm$^3$),PROPERTY: HV,PROPERTY: Type of test,PROPERTY: Test temperature ($^\circ$C),PROPERTY: YS (MPa),PROPERTY: UTS (MPa),PROPERTY: Elongation (%),PROPERTY: Elongation plastic (%),PROPERTY: Young modulus (GPa),PROPERTY: O content (wppm),PROPERTY: N content (wppm),PROPERTY: C content (wppm),REFERENCE: comment,"Internal Reference # (J4, J90)","J4, J90 Original DOI",PROPERTY: Exp. Density (g/cm$^3$),Unnamed: 22,IDENTIFIER: Reference ID
635,J71,10.1016/j.msea.2019.138140,Nb25Mo25Ta25W25,BCC,S,S + A,,,1630,,,,,,,,,,,original data in GPA,,,,,191
636,J71,10.1016/j.msea.2019.138140,Nb25Mo25Ta25W25,BCC,S,S + A,,,815,,,,,,,,,,,original data in GPA,,,,,191
637,J71,10.1016/j.msea.2019.138140,Nb25Mo25Ta25W25,BCC + Carbide,M,S + A,,,700,,,,,,,,,,,original data in GPA,,,,,191
638,J72,10.1016/j.actamat.2019.06.006,NbTaTi,BCC,S,CR + A ,,,,C,20.0,573,,,,,100.0,<5,,changed processing to CR + A; fixed yield strengths,,,,,192
639,J72,10.1016/j.actamat.2019.06.006,NbTaTi,BCC,S,CR + A ,,,,C,100.0,486,,,,,100.0,<5,,changed processing to CR + A; fixed yield strengths,,,,,192
640,J72,10.1016/j.actamat.2019.06.006,NbTaTi,BCC,S,CR + A ,,,,C,200.0,378,,,,,100.0,<5,,changed processing to CR + A; fixed yield strengths,,,,,192
641,J72,10.1016/j.actamat.2019.06.006,NbTaTi,BCC,S,CR + A ,,,,C,300.0,314,,,,,100.0,<5,,changed processing to CR + A; fixed yield strengths,,,,,192
642,J72,10.1016/j.actamat.2019.06.006,NbTaTi,BCC,S,CR + A ,,,,C,400.0,232,,,,,100.0,<5,,changed processing to CR + A; fixed yield strengths,,,,,192
643,J72,10.1016/j.actamat.2019.06.006,NbTaTi,BCC,S,CR + A ,,,,C,600.0,222,,,,,100.0,<5,,changed processing to CR + A; fixed yield strengths,,,,,192
644,J72,10.1016/j.actamat.2019.06.006,NbTaTi,BCC,S,CR + A ,,,,C,800.0,210,,,,,100.0,<5,,changed processing to CR + A; fixed yield strengths,,,,,192
645,J72,10.1016/j.actamat.2019.06.006,NbTaTi,BCC,S,CR + A ,,,,C,1000.0,160,,,,,100.0,<5,,changed processing to CR + A; fixed yield strengths,,,,,192
646,J72,10.1016/j.actamat.2019.06.006,AlNbTaTi,BCC,S,AC,,,,C,20.0,1152,,,,,180.0,<5,,fixed yield strengths,,,,,192
647,J72,10.1016/j.actamat.2019.06.006,AlNbTaTi,BCC,S,AC,,,,C,200.0,740,,,,,180.0,<5,,fixed yield strengths,,,,,192
648,J72,10.1016/j.actamat.2019.06.006,AlNbTaTi,BCC,S,AC,,,,C,100.0,740,,,,,180.0,<5,,fixed yield strengths,,,,,192
649,J72,10.1016/j.actamat.2019.06.006,MoNbTaTi,BCC,S,A,,,,C,20.0,1210,,,,,80.0,<5,,fixed yield strengths,,,,,192
650,J72,10.1016/j.actamat.2019.06.006,MoNbTaTi,BCC,S,A,,,,C,60.0,1071,,,,,80.0,<5,,fixed yield strengths,,,,,192
651,J72,10.1016/j.actamat.2019.06.006,MoNbTaTi,BCC,S,A,,,,C,100.0,1029,,,,,80.0,<5,,fixed yield strengths,,,,,192
652,J72,10.1016/j.actamat.2019.06.006,MoNbTaTi,BCC,S,A,,,,C,200.0,868,,,,,80.0,<5,,fixed yield strengths,,,,,192
653,J72,10.1016/j.actamat.2019.06.006,MoNbTaTi,BCC,S,A,,,,C,300.0,732,,,,,80.0,<5,,fixed yield strengths,,,,,192
654,J72,10.1016/j.actamat.2019.06.006,MoNbTaTi,BCC,S,A,,,,C,400.0,685,,,,,80.0,<5,,fixed yield strengths,,,,,192
655,J72,10.1016/j.actamat.2019.06.006,MoNbTaTi,BCC,S,A,,,,C,600.0,593,,,,,80.0,<5,,fixed yield strengths,,,,,192
656,J72,10.1016/j.actamat.2019.06.006,MoNbTaTi,BCC,S,A,,,,C,800.0,564,,,,,80.0,<5,,fixed yield strengths,,,,,192
657,J72,10.1016/j.actamat.2019.06.006,MoNbTaTi,BCC,S,A,,,,C,1000.0,539,,,,,80.0,<5,,fixed yield strengths,,,,,192
658,J72,10.1016/j.actamat.2019.06.006,WNbTaTi,BCC,S,A,,,,C,20.0,1054,,,,,90.0,<5,,fixed yield strengths,,,,,192
659,J72,10.1016/j.actamat.2019.06.006,WNbTaTi,BCC,S,A,,,,C,100.0,968,,,,,90.0,<5,,fixed yield strengths,,,,,192
660,J72,10.1016/j.actamat.2019.06.006,WNbTaTi,BCC,S,A,,,,C,200.0,869,,,,,90.0,<5,,fixed yield strengths,,,,,192
661,J72,10.1016/j.actamat.2019.06.006,WNbTaTi,BCC,S,A,,,,C,300.0,754,,,,,90.0,<5,,fixed yield strengths,,,,,192
662,J72,10.1016/j.actamat.2019.06.006,WNbTaTi,BCC,S,A,,,,C,400.0,627,,,,,90.0,<5,,fixed yield strengths,,,,,192
663,J72,10.1016/j.actamat.2019.06.006,WNbTaTi,BCC,S,A,,,,C,600.0,596,,,,,90.0,<5,,fixed yield strengths,,,,,192
664,J72,10.1016/j.actamat.2019.06.006,WNbTaTi,BCC,S,A,,,,C,800.0,564,,,,,90.0,<5,,fixed yield strengths,,,,,192
665,J72,10.1016/j.actamat.2019.06.006,WNbTaTi,BCC,S,A,,,,C,1000.0,459,,,,,90.0,<5,,fixed yield strengths,,,,,192
666,J72,10.1016/j.actamat.2019.06.006,HfNbTaTi,BCC,S,A,,,,C,20.0,860,,,,,160.0,<5,,fixed yield strengths,,,,,192
667,J72,10.1016/j.actamat.2019.06.006,HfNbTaTi,BCC,S,A,,,,C,20.0,834,,,,,160.0,<5,,fixed yield strengths,,,,,192
668,J72,10.1016/j.actamat.2019.06.006,HfNbTaTi,BCC,S,A,,,,C,200.0,610,,,,,160.0,<5,,fixed yield strengths,,,,,192
669,J72,10.1016/j.actamat.2019.06.006,HfNbTaTi,BCC,S,A,,,,C,600.0,473,,,,,160.0,<5,,fixed yield strengths,,,,,192
670,J72,10.1016/j.actamat.2019.06.006,CrNbMoTi,BCC,S,A,,,,C,20.0,1630,,,,,260.0,<5,,fixed yield strengths,,,,,192
671,J72,10.1016/j.actamat.2019.06.006,CrNbMoTi,BCC,S,A,,,,C,200.0,1268,,,,,260.0,<5,,fixed yield strengths,,,,,192
672,J72,10.1016/j.actamat.2019.06.006,CrNbMoTi,BCC,S,A,,,,C,400.0,1115,,,,,260.0,<5,,fixed yield strengths,,,,,192
673,J72,10.1016/j.actamat.2019.06.006,CrNbMoTi,BCC,S,A,,,,C,600.0,1062,,,,,260.0,<5,,fixed yield strengths,,,,,192
674,J72,10.1016/j.actamat.2019.06.006,CrNbMoTi,BCC,S,A,,,,C,800.0,1058,,,,,260.0,<5,,fixed yield strengths,,,,,192
675,J72,10.1016/j.actamat.2019.06.006,CrMoTaTi,BCC + Laves,M,A,,,,C,20.0,1795,,,,,200.0,<5,,fixed yield strengths,,,,,192
676,J72,10.1016/j.actamat.2019.06.006,CrMoTaTi,BCC + Laves,M,A,,,,C,100.0,1506,,,,,200.0,<5,,fixed yield strengths,,,,,192
677,J72,10.1016/j.actamat.2019.06.006,CrMoTaTi,BCC + Laves,M,A,,,,C,200.0,1266,,,,,200.0,<5,,fixed yield strengths,,,,,192
678,J72,10.1016/j.actamat.2019.06.006,CrMoTaTi,BCC + Laves,M,A,,,,C,300.0,1183,,,,,200.0,<5,,fixed yield strengths,,,,,192
679,J72,10.1016/j.actamat.2019.06.006,CrMoTaTi,BCC + Laves,M,A,,,,C,400.0,1175,,,,,200.0,<5,,fixed yield strengths,,,,,192
680,J72,10.1016/j.actamat.2019.06.006,CrMoTaTi,BCC + Laves,M,A,,,,C,600.0,1162,,,,,200.0,<5,,fixed yield strengths,,,,,192
681,J72,10.1016/j.actamat.2019.06.006,CrMoTaTi,BCC + Laves,M,A,,,,C,800.0,1162,,,,,200.0,<5,,fixed yield strengths,,,,,192
682,J72,10.1016/j.actamat.2019.06.006,CrMoTaTi,BCC + Laves,M,A,,,,C,1000.0,1159,,,,,200.0,<5,,fixed yield strengths,,,,,192
683,J74,10.1007/s40195-019-00921-3,Ti2ZrHf0.5V,BCC,S,AC,,,338.3,C,25.0,1160,,>50,,,,,,,,,,,193
684,J74,10.1007/s40195-019-00921-3,Ti2ZrHf0.5V,BCC,S,AC,,,338.3,C,600.0,405,,>50,,,,,,added high temperature data,,,,,193
685,J74,10.1007/s40195-019-00921-3,Ti2ZrHf0.5V,BCC,S,AC,,,338.3,C,800.0,85,,>50,,,,,,added high temperature data,,,,,193
686,J74,10.1007/s40195-019-00921-3,Ti2ZrHf0.5VNb0.25,BCC,S,AC,,,332.4,C,25.0,1115,,>50,,,,,,,,,,,193
687,J74,10.1007/s40195-019-00921-3,Ti2ZrHf0.5VNb0.5,BCC,S,AC,,,322.5,C,25.0,1065,,>50,,,,,,,,,,,193
688,J74,10.1007/s40195-019-00921-3,Ti2ZrHf0.5VNb0.5,BCC,S,AC,,,322.5,C,600.0,718,,>50,,,,,,added high temperature data,,,,,193
689,J74,10.1007/s40195-019-00921-3,Ti2ZrHf0.5VNb0.5,BCC,S,AC,,,322.5,C,800.0,135,,>50,,,,,,added high temperature data,,,,,193
690,J74,10.1007/s40195-019-00921-3,Ti2ZrHf0.5VNb0.75,BCC,S,AC,,,318.9,C,25.0,1025,,>50,,,,,,,,,,,193
691,J74,10.1007/s40195-019-00921-3,Ti2ZrHf0.5VNb,BCC,S,AC,,,310.4,C,25.0,980,,>50,,,,,,,,,,,193
692,J74,10.1007/s40195-019-00921-3,Ti2ZrHf0.5VNb,BCC,S,AC,,,310.4,C,600.0,859,,>50,,,,,,added high temperature data,,,,,193
693,J74,10.1007/s40195-019-00921-3,Ti2ZrHf0.5VNb,BCC,S,AC,,,310.4,C,800.0,195,,>50,,,,,,added high temperature data,,,,,193
694,J75,10.1016/j.matchar.2019.05.043,FeCrCuMnNi,2FCC + BCC,M,CR,,,398,T,25.0,1190,1300,4.3,,,,,,changed to 2FCC + BCC,,,,,194
695,J75,10.1016/j.matchar.2019.05.043,FeCrCuMnNi,2FCC + BCC,M,CR + A,1.4,,367,T,25.0,1170,1270,10.7,,,,,,changed to 2FCC + BCC,,,,,194
696,J75,10.1016/j.matchar.2019.05.043,FeCrCuMnNi,2FCC + BCC,M,CR + A,1.5,,312,T,25.0,1030,1190,11.4,,,,,,changed to 2FCC + BCC,,,,,194
697,J75,10.1016/j.matchar.2019.05.043,FeCrCuMnNi,2FCC + BCC,M,CR + A,1.9,,271,T,25.0,970,1110,12.1,,,,,,changed to 2FCC + BCC,,,,,194
698,J75,10.1016/j.matchar.2019.05.043,FeCrCuMnNi,2FCC + BCC,M,CR + A,2.2,,183,T,25.0,850,960,14.3,,,,,,changed to 2FCC + BCC,,,,,194
699,J75,10.1016/j.matchar.2019.05.043,FeCrCuMnNi,2FCC + BCC,M,CR + A,6.5,,162,T,25.0,470,640,34.8,,,,,,changed to 2FCC + BCC,,,,,194
700,J76,10.1016/j.matlet.2019.04.012,CoCrFeNi2.1Nb0.2,FCC + Laves,M,AC,,,,T,25.0,170,537,32,,,,,,,,,,,195
701,J76,10.1016/j.matlet.2019.04.012,CoCrFeNi2.1Nb0.4,FCC + Laves,M,AC,,,,T,25.0,640,840,7,,,,,,,,,,,195
702,J76,10.1016/j.matlet.2019.04.012,CoCrFeNi2.1Nb0.2,FCC + Laves + D019,M,A,,,,T,25.0,560,860,19,,,,,,,,,,,195
703,J76,10.1016/j.matlet.2019.04.012,CoCrFeNi2.1Nb0.4,FCC + Laves,M,A,,,,T,25.0,,,3,,,,,,,,,,,195
704,J77,10.1007/s40195-019-00916-0,(CoCrFeMnNi)95C5,FCC + M23C6,M,A,,,345,C,800.0,,,,,,,,,,,,,,196
705,J77,10.1007/s40195-019-00916-0,(CoCrFeMnNi)95C5,FCC + M23C6,M,A,,,285,C,1000.0,,,,,,,,,,,,,,196
706,J78,10.1016/j.matchar.2019.05.022,AlCoCrFeNi,BCC + FCC,M,SPS,10.21,,550 $\pm$ 12,C,25.0,1221.1 $\pm$ 15,,30,23.2,,,,,"changed elongation to total elongation, not plastic",,,,,197
707,J78,10.1016/j.matchar.2019.05.022,AlCoCrFeNi,BCC + FCC,M,SPS,15.68,,510 $\pm$ 11,C,25.0,1186.7 $\pm$ 16,,33,26.5,,,,,"changed elongation to total elongation, not plastic",,,,,197
708,J78,10.1016/j.matchar.2019.05.022,AlCoCrFeNi,BCC + FCC,M,SPS,16.7,,503 $\pm$ 14,C,25.0,1112.9 $\pm$ 20,,30,21.4,,,,,"changed elongation to total elongation, not plastic",,,,,197
709,J79,10.1007/s11837-019-03432-9,WMoNbCrTi,BCC + Laves,M,SPS,,,,C,25.0,2500,,10,,,,,,Experimental Variable was ball milling time. ,,,,,198
710,J79,10.1007/s11837-019-03432-9,WMoNbCrTi,BCC + Laves,M,SPS,,,,C,25.0,1260,,4.8,,,,,,Added Total Elongation Data from Fig 6,,,,,198
711,J79,10.1007/s11837-019-03432-9,WMoNbCrTi,BCC + Laves,M,SPS,,,,C,25.0,1630,,4.85,,,,,,,,,,,198
712,J79,10.1007/s11837-019-03432-9,WMoNbCrTi,BCC + Laves,M,SPS,,,,C,25.0,2030,,4.3,,,,,,,,,,,198
713,J79,10.1007/s11837-019-03432-9,WMoNbCrTi,BCC + Laves,M,SPS,,,,C,25.0,1920,,5,,,,,,,,,,,198
714,J80,10.1088/2053-1591/ab2517,AlCoCrFeNi,,,AC,,,,C,25.0,1380,,,,,,,,Added AC value from Table 2,,,,,200
715,J80,10.1088/2053-1591/ab2517,AlCoCrFeNi,BCC + B2,M,SPS,,,,C,25.0,,,,,,,,,,,,,,200
716,J80,10.1088/2053-1591/ab2517,AlCoCrFeNi,BCC + B2,M,SPS,,,,C,25.0,,,,,,,,,,,,,,200
717,J80,10.1088/2053-1591/ab2517,AlCoCrFeNi,BCC + B2 + FCC,M,SPS,,,,C,25.0,,,,,,,,,,,,,,200
718,J80,10.1088/2053-1591/ab2517,AlCoCrFeNi,BCC + B2 + FCC,M,SPS,,,,C,25.0,,,,,,,,,,,,,,200
719,J80,10.1088/2053-1591/ab2517,AlCoCrFeNi,BCC + B2 + FCC,M,SPS,,,,C,25.0,520,,,,,,,,,,,,,200
720,J80,10.1088/2053-1591/ab2517,AlCoCrFeNi,BCC + B2 + FCC,M,SPS,,,,C,25.0,1150,,,,,,,,,,,,,200
721,J80,10.1088/2053-1591/ab2517,AlCoCrFeNi,BCC + B2 + FCC,M,SPS,,,,C,25.0,1287,,,,,,,,,,,,,200
722,J80,10.1088/2053-1591/ab2517,AlCoCrFeNi,BCC + B2 + FCC,M,SPS,,,,C,25.0,1286,,,,,,,,,,,,,200
723,J80,10.1088/2053-1591/ab2517,AlCoCrFeNi,BCC + B2 + FCC,M,SPS,,,,C,25.0,1390,,,,,,,,,,,,,200
724,J80,10.1088/2053-1591/ab2517,AlCoCrFeNi,BCC + B2 + FCC,M,SPS,,,,C,25.0,1626,,,,,,,,,,,,,200
725,J81,10.1016/j.jallcom.2019.04.296,CrFeMnNi,FCC,S,,,,,,,,,,,,,,,Skipped,,,,,201
726,J82,10.1016/j.msea.2019.138039,Fe40Mn40Co10Cr10,FCC,S,AC,,,,T,25.0,213,471,55.7,,,,,,Added values for AC and F,,,,,202
727,J82,10.1016/j.msea.2019.138039,Fe40Mn40Co10Cr10,FCC,S,AC,,,,T,25.0,393,634,26.5,,,,,,,,,,,202
728,J82,10.1016/j.msea.2019.138039,Fe40Mn40Co10Cr10,FCC,S,HF,,,,T,25.0,792,1055,22.6,,,,,,,,,,,202
729,J82,10.1016/j.msea.2019.138039,Fe40Mn40Co10Cr10,FCC,S,HR + A,18,,,T,25.0,559,1004,33.9,,,,,,,,,,,202
730,J82,10.1016/j.msea.2019.138039,Fe40Mn40Co10Cr10,FCC,S,HR + A,32,,,T,25.0,512,978,55.3,,,,,,,,,,,202
731,J82,10.1016/j.msea.2019.138039,Fe40Mn40Co10Cr10,FCC,S,HR + A,63,,,T,25.0,476,947,69.4,,,,,,,,,,,202
732,J84,10.1016/j.jallcom.2019.04.121,CrMnFeCoNi,FCC,S,CR + A,,,,T,25.0,353,635,,43,,,,,Fixed with values from summary ,,,,,203
733,J84,10.1016/j.jallcom.2019.04.121,Cr19.68Mn19.68Fe19.68Co19.68Ni19.68Nb0.8C0.8,FCC + NbC,M,CR + A,,,,T,25.0,732,911,,32,,,,,,,,,,203
734,J85,10.1016/j.matlet.2019.03.075,TiNbTa0.5ZrAl0.5,BCC + HCP,M,HF,,,,C,25.0,1500,,6,,,,,,Changed AC to F,,,,,204
735,J85,10.1016/j.matlet.2019.03.075,TiNbTa0.5ZrAl0.5,BCC,M,S,,,,,,,,,,,,,,Added Sintering Data,,,,,204
736,J85,10.1016/j.matlet.2019.03.075,TiNbTa0.5ZrAl0.5,BCC + HCP,M,HF + A,,,,C,25.0,1200,,8,,,,,,,,,,,204
737,J85,10.1016/j.matlet.2019.03.075,TiNbTa0.5ZrAl0.5,BCC + HCP,M,HF + A,,,,C,25.0,2100,,12,,,,,,,,,,,204
738,J85,10.1016/j.matlet.2019.03.075,TiNbTa0.5ZrAl0.5,BCC + HCP,M,HF + A,,,,C,25.0,1740,,20,,,,,,,,,,,204
739,J85,10.1016/j.matlet.2019.03.075,TiNbTa0.5ZrAl0.5,BCC + HCP,M,HF + A,,,,C,25.0,1630,,12,,,,,,,,,,,204
740,J86,10.1007/s10853-019-03567-9,NbTaWMo,BCC,S,SPS,,,504.5,C,25.0,1217,,7.5,3.8,,,,,Fixed Elongation Values from Fracture Strain to Engineering Strain,,,,,205
741,J86,10.1007/s10853-019-03567-9,NbTaWMoSi0.25,BCC + Silicide,M,SPS,,,567,C,25.0,1826,,16.5,10.5,,,,,,,,,,205
742,J86,10.1007/s10853-019-03567-9,NbTaWMoSi0.5,BCC + Silicide,M,SPS,,,697,C,25.0,1883,,11,5.8,,,,,,,,,,205
743,J86,10.1007/s10853-019-03567-9,NbTaWMoSi0.75,BCC + Silicide,M,SPS,,,682.6,C,25.0,2483,,6.2,1.6,,,,,,,,,,205
744,J86,10.1007/s10853-019-03567-9,NbTaWMo,BCC,S,SPS,,,420,,200.0,,,,,,,,,"Tests focused on HV, not mechanical stress",,,,,205
745,J86,10.1007/s10853-019-03567-9,NbTaWMoSi0.25,BCC + Silicide,M,SPS,,,425,,200.0,,,,,,,,,,,,,,205
746,J86,10.1007/s10853-019-03567-9,NbTaWMoSi0.5,BCC + Silicide,M,SPS,,,535,,200.0,,,,,,,,,,,,,,205
747,J86,10.1007/s10853-019-03567-9,NbTaWMoSi0.75,BCC + Silicide,M,SPS,,,640,,200.0,,,,,,,,,,,,,,205
748,J86,10.1007/s10853-019-03567-9,NbTaWMo,BCC,S,SPS,,,425,,400.0,,,,,,,,,,,,,,205
749,J86,10.1007/s10853-019-03567-9,NbTaWMoSi0.25,BCC + Silicide,M,SPS,,,420,,400.0,,,,,,,,,,,,,,205
750,J86,10.1007/s10853-019-03567-9,NbTaWMoSi0.5,BCC + Silicide,M,SPS,,,560,,400.0,,,,,,,,,,,,,,205
751,J86,10.1007/s10853-019-03567-9,NbTaWMoSi0.75,BCC + Silicide,M,SPS,,,600,,400.0,,,,,,,,,,,,,,205
752,J86,10.1007/s10853-019-03567-9,NbTaWMo,BCC,S,SPS,,,340,,600.0,,,,,,,,,,,,,,205
753,J86,10.1007/s10853-019-03567-9,NbTaWMoSi0.25,BCC + Silicide,M,SPS,,,425,,600.0,,,,,,,,,,,,,,205
754,J86,10.1007/s10853-019-03567-9,NbTaWMoSi0.5,BCC + Silicide,M,SPS,,,540,,600.0,,,,,,,,,,,,,,205
755,J86,10.1007/s10853-019-03567-9,NbTaWMoSi0.75,BCC + Silicide,M,SPS,,,650,,600.0,,,,,,,,,,,,,,205
756,J86,10.1007/s10853-019-03567-9,NbTaWMo,BCC,S,SPS,,,335.5,,800.0,,,,,,,,,,,,,,205
757,J86,10.1007/s10853-019-03567-9,NbTaWMoSi0.25,BCC + Silicide,M,SPS,,,399.2,,800.0,,,,,,,,,,,,,,205
758,J86,10.1007/s10853-019-03567-9,NbTaWMoSi0.5,BCC + Silicide,M,SPS,,,550.5,,800.0,,,,,,,,,,,,,,205
759,J86,10.1007/s10853-019-03567-9,NbTaWMoSi0.75,BCC + Silicide,M,SPS,,,597.3,,800.0,,,,,,,,,,,,,,205
760,J86,10.1007/s10853-019-03567-9,NbTaWMoSi0.75,BCC + Silicide,M,SPS,,,,C,1200.0,960,,22.7,,,,,,Added Engineering Values from Fig 5,,,,,205
761,J87,10.1007/s11661-019-05231-y,FeCoCrNiMn,FCC,S,CR,,,,T,25.0,1199.26,1335.35,4.37,,,,,,,,,,,206
762,J87,10.1007/s11661-019-05231-y,FeCoCrNiMn,FCC,S,CR + A,,,,T,25.0,1269.23,1366.3,1.16,,,,,,,,,,,206
763,J87,10.1007/s11661-019-05231-y,FeCoCrNiMn,FCC,S,CR + A,,,,T,25.0,1371.21,1402.83,1.58,,,,,,,,,,,206
764,J87,10.1007/s11661-019-05231-y,FeCoCrNiMn,FCC,S,CR + A,0.166,,,T,25.0,1362.74,1471.05,3.15,,,,,,,,,,,206
765,J87,10.1007/s11661-019-05231-y,FeCoCrNiMn,FCC,S,CR + A,0.248,,,T,25.0,1241.81,1325.25,4.31,,,,,,,,,,,206
766,J87,10.1007/s11661-019-05231-y,FeCoCrNiMn,FCC,S,CR + A,0.468,,,T,25.0,930.3,1021.32,19.01,,,,,,,,,,,206
767,J87,10.1007/s11661-019-05231-y,FeCoCrNiMn,FCC,S,CR + A,1.79,,,T,25.0,729.21,901.74,26.3,,,,,,,,,,,206
768,J87,10.1007/s11661-019-05231-y,FeCoCrNiMn,FCC,S,CR + A,4.57,,,T,25.0,494.82,735.6,38.7,,,,,,,,,,,206
769,J87,10.1007/s11661-019-05231-y,FeCoCrNiMn,FCC,S,CR + A,13.45,,,T,25.0,366.88,673.25,42.55,,,,,,,,,,,206
770,J87,10.1007/s11661-019-05231-y,FeCoCrNiMn,FCC,S,CR + A,22.37,,,T,25.0,290.65,618.51,43.15,,,,,,,,,,,206
771,J87,10.1007/s11661-019-05231-y,FeCoCrNiMn,FCC,S,CR + A,30.6,,,T,25.0,258.76,598.75,45.05,,,,,,,,,,,206
772,J88,10.1016/j.vacuum.2019.04.043,FeCoCrNiMnTi0.1C0.1,FCC + TiMnO3 + M23C6 + M7C3,M,VHP,,,457 $\pm$ 2,C,25.0,1616 $\pm$ 27,,,4.5 $\pm$ 0.3,,,,,Vacuum Hot Press Sintering,,,7.5,,207
773,J88,10.1016/j.vacuum.2019.04.043,FeCoCrNiMnTi0.1C0.1,FCC + TiMnO3 + M23C6 + M7C3,M,VHP,,,461 $\pm$ 3,C,25.0,1652 $\pm$ 16,,,10 $\pm$ 0.5,,,,,Added HV and Density values from Table 2,,,7.64,,207
774,J88,10.1016/j.vacuum.2019.04.043,FeCoCrNiMnTi0.1C0.1,FCC + TiMnO3 + M23C6 + M7C3,M,VHP,,,428 $\pm$ 3,C,25.0,1490 $\pm$ 11,,,11.4 $\pm$ 0.5,,,,,,,,7.66,,207
775,J88,10.1016/j.vacuum.2019.04.043,FeCoCrNiMnTi0.1C0.1,FCC + TiMnO3 + M23C6 + M7C3,M,VHP,,,378 $\pm$ 4,C,25.0,1194 $\pm$ 9,,,20.1 $\pm$ 0.7,,,,,,,,7.69,,207
776,J90,10.1016/j.msea.2019.05.056,CoCrFeNi,FCC,S,,,,,,,,,,,,,,,"Large list, varied in data points",32,10.1016/j.intermet.2012.03.005,,,208
777,J90,10.1016/j.msea.2019.05.056,CoCrFeNiAl0.5,FCC + BCC,M,,,,250,,,,,,,,,,,come from a variety of references,32,10.1016/j.intermet.2012.03.005,,,208
778,J90,10.1016/j.msea.2019.05.056,CoCrFeNiAl,BCC,S,,,,500,,,,,,,,,,,,32,10.1016/j.intermet.2012.03.005,,,208
779,J90,10.1016/j.msea.2019.05.056,CoCrFeNiAl2,BCC,S,,,,733,,,,,,,,,,,,32,10.1016/j.intermet.2012.03.005,,,208
780,J90,10.1016/j.msea.2019.05.056,CoCrFeNiCu,FCC,S,,,,166,T,25.0,230,,,,,,,,,33,10.1007/s11661-005-0218-9,,,208
781,J90,10.1016/j.msea.2019.05.056,CoCrFeNiCuAl0.5,FCC,S,,,,200,,,,,,,,,,,,33,10.1007/s11661-005-0218-9,,,208
782,J90,10.1016/j.msea.2019.05.056,CoCrFeNiCuAl,FCC + BCC,M,,,,350,,,,,,,,,,,,33,10.1007/s11661-005-0218-9,,,208
783,J90,10.1016/j.msea.2019.05.056,AlCoCrFeNi,BCC,S,,,,,C,25.0,1500,,,,,,,,,34,10.1016/j.msea.2011.10.110,,,208
784,J90,10.1016/j.msea.2019.05.056,AlCoCrFeNiNb0.1,BCC,S,,,,520,C,25.0,1373,,,,,,,,,34,10.1016/j.msea.2011.10.110,,,208
785,J90,10.1016/j.msea.2019.05.056,AlCoCrFeNiNb0.25,Laves Phase + BCC,M,,,,569,C,25.0,1641,,,,,,,,,34,10.1016/j.msea.2011.10.110,,,208
786,J90,10.1016/j.msea.2019.05.056,AlCoCrFeNiNb0.5,Laves Phase + BCC,M,,,,668,C,25.0,1959,,,,,,,,,34,10.1016/j.msea.2011.10.110,,,208
787,J90,10.1016/j.msea.2019.05.056,AlCoCrFeNiNb0.75,Laves Phase + BCC,M,,,,747,C,25.0,2473,,,,,,,,,34,10.1016/j.msea.2011.10.110,,,208
788,J90,10.1016/j.msea.2019.05.056,CoFeNiAl0.5Ti0.5,FCC,S,,,,733,,,,,,,,,,,,35,10.1016/j.msea.2013.12.096,,,208
789,J90,10.1016/j.msea.2019.05.056,CrCoFeNiAl0.5Ti0.5,FCC + BCC,M,,,,640,,,,,,,,,,,,35,10.1016/j.msea.2013.12.096,,,208
790,J90,10.1016/j.msea.2019.05.056,Al0.5FeCrNiMnCoTa0,,,,,,,,,,,,,,,,,,36,10.4028/www.scientific.net/MSF.846.13,,,208
791,J90,10.1016/j.msea.2019.05.056,Al0.5FeCrNiMnCoTa0.2,FCC + BCC + laves,M,,,,385,,,,,,,,,,,,36,10.4028/www.scientific.net/MSF.846.13,,,208
792,J90,10.1016/j.msea.2019.05.056,Al0.5FeCrNiMnCoTa0.4,FCC + BCC + laves,M,,,,486,,,,,,,,,,,,36,10.4028/www.scientific.net/MSF.846.13,,,208
793,J90,10.1016/j.msea.2019.05.056,Al0.55FeCrNiMnCoTa0.6,FCC + BCC + laves + IM,M,,,,570,,,,,,,,,,,,36,10.4028/www.scientific.net/MSF.846.13,,,208
794,J90,10.1016/j.msea.2019.05.056,FeCrNiMnCoTa0,FCC + BCC,M,,,,,,,,,,,,,,,,36,10.4028/www.scientific.net/MSF.846.13,,,208
795,J90,10.1016/j.msea.2019.05.056,FeCrNiMnCoTa0.2,FCC + BCC,M,,,,200,,,,,,,,,,,,36,10.4028/www.scientific.net/MSF.846.13,,,208
796,J90,10.1016/j.msea.2019.05.056,FeCrNiMnCoTa0.4,FCC + BCC,M,,,,290,,,,,,,,,,,,36,10.4028/www.scientific.net/MSF.846.13,,,208
797,J90,10.1016/j.msea.2019.05.056,FeCrNiMnCoTa0.6,FCC + BCC,M,,,,345,,,,,,,,,,,,36,10.4028/www.scientific.net/MSF.846.13,,,208
798,J90,10.1016/j.msea.2019.05.056,Al0.5CoCrCuFeNiV0,FCC,S,,,,220,,,,,,,,,,,,37,10.1007/s11661-006-0081-3,,,208
799,J90,10.1016/j.msea.2019.05.056,Al0.5CoCrCuFeNiV0.5,FCC + BCC,M,,,,340,,,,,,,,,,,,37,10.1007/s11661-006-0081-3,,,208