,REFERENCE: tag,REFERENCE: doi,FORMULA,PROPERTY: Type of phases,PROPERTY: Single/Multiphase,PROPERTY: synthesis method,PROPERTY: grain size ($\mu$m),PROPERTY: ROM Density (g/cm$^3$),PROPERTY: HV,PROPERTY: Type of test,PROPERTY: Test temperature ($^\circ$C),PROPERTY: YS (MPa),PROPERTY: UTS (MPa),PROPERTY: Elongation (%),PROPERTY: Elongation plastic (%),PROPERTY: ROM Young modulus (GPa),PROPERTY: Exp. Young modulus (GPa),PROPERTY: O content (wppm),PROPERTY: N content (wppm),PROPERTY: C content (wppm),REFERENCE: comment,Internal Reference #,Original DOI,PROPERTY: Exp. Density (g/cm$^3$),Unnamed: 22,IDENTIFIER: Reference ID
225,J31,10.1016/j.scriptamat.2018.09.008,(Al18.6Fe34.2Co23.6Ni23.6)97.3C2.7,B2 + L12,M,AC,,,,C,25.0,1202,,32.6,,,,,,11067.0,Note: this alloy was intentionally designed to contain carbon,,,,,154
226,J32,10.1016/j.matchar.2018.07.015,HfNbTaTiZr,BCC,S,CR+A,,,,,,,,,,,,,,,Skipped,,,,,155
227,J33,10.1080/21663831.2018.1553803,Co25Cr25(FeNi)50,FCC,S,CR+A,14.9,,,T,25.0,214,612,77.3,,,,,,,changed processing from A to CR + A; added grain size,,,,,156
228,J33,10.1080/21663831.2018.1553803,Co35Cr25(FeNi)40,FCC,S,CR+A,11.6,,,T,25.0,241,721,96.2,,,,,,,changed processing from A to CR + A; added grain size,,,,,156
229,J33,10.1080/21663831.2018.1553803,Co45Cr25(FeNi)30,FCC,S,CR+A,10.5,,,T,25.0,299,841,76.1,,,,,,,changed processing from A to CR + A; added grain size,,,,,156
230,J33,10.1080/21663831.2018.1553803,Co55Cr25(FeNi)20,FCC  + HCP,M,CR+A,5.6,,,T,25.0,392,746,20.3,,,,,,,changed processing from A to CR + A; added grain size,,,,,156
231,J33,10.1080/21663831.2018.1553803,Co65Cr25(FeNi)10,FCC  + HCP,M,CR+A,6.2,,,T,25.0,482,857,13.3,,,,,,,changed processing from A to CR + A; added grain size,,,,,156
232,J34,10.1016/j.intermet.2019.04.003,NbHfZrTi,BCC,S,CR+A,,,,,,,,,,,69.7,,,,Youngs Modulus data,,,,,157
233,J34-58,10.1016/j.intermet.2014.11.005,NiCoCrFeMn,,,,,,,,,,,,,,202,,,,,58.0,10.1016/j.intermet.2014.11.005,,,158
234,J34-59,10.1557/adv.2017.76,NiCoCrFeMn,,,,,,,,,,,,,,202.2,,,,,59.0,10.1557/adv.2017.76,,,159
235,J34-60,10.1016/j.msea.2016.05.082,NiCoFeCr,,,,,,,,,,,,,,204,,,,,60.0,10.1016/j.msea.2016.05.082,,,160
236,J34-61,10.1016/j.msea.2017.04.003,NiCoFe,,,,,,,,,,,,,,174,,,,,61.0,10.1016/j.msea.2017.04.003,,,161
237,J34-62,10.1016/j.msea.2017.06.086,NiCoCr,,,,,,,,,,,,,,222,,,,,62.0,10.1016/j.msea.2017.06.086,,,162
238,J34-63, 10.1038/ncomms10602,NiCoCr,,,,,,,,,,,,,,229,,,,,63.0, 10.1038/ncomms10602,,,163
239,J34-61,10.1016/j.msea.2017.04.003,NiCoCr,,,,,,,,,,,,,,234,,,,,61.0,10.1016/j.msea.2017.04.003,,,161
240,J35,10.1016/j.actamat.2019.03.010,Al34Co17Cr34Cu0Fe5Ni10,,,,,,699 $\pm$ 37,,,,,,,,,,,,"No mechnical data, data mostly on HV",,,,not a review article ,164
241,J35,10.1016/j.actamat.2019.03.010,Al47Co14Cr15Cu5Fe13Ni6,,,,,,728 $\pm$ 42,,,,,,,,,,,,,,,,not a review article ,164
242,J35,10.1016/j.actamat.2019.03.010,Al38Co11Cr6Cu9Fe31Ni5,,,,,,604 $\pm$ 31,,,,,,,,,,,,,,,,not a review article ,164
243,J35,10.1016/j.actamat.2019.03.010,Al36Co10Cr31Cu6Fe9Ni8,,,,,,790 $\pm$ 41,,,,,,,,,,,,,,,,not a review article ,164
244,J35,10.1016/j.actamat.2019.03.010,Al43Co17Cr15Cu0Fe14Ni11,,,,,,806 $\pm$ 31,,,,,,,,,,,,,,,,not a review article ,164
245,J35,10.1016/j.actamat.2019.03.010,Al47Co12Cr12Cu5Fe13Ni11,,,,,,811 $\pm$ 31,,,,,,,,,,,,,,,,not a review article ,164
246,J35,10.1016/j.actamat.2019.03.010,Al43Co19Cr19Cu0Fe11Ni8,,,,,,855 $\pm$ 26,,,,,,,,,,,,,,,,not a review article ,164
247,J35,10.1016/j.actamat.2019.03.010,Al39Co10Cr31Cu5Fe8Ni7,,,,,,802 $\pm$ 18,,,,,,,,,,,,,,,,not a review article ,164
248,J35,10.1016/j.actamat.2019.03.010,Al47Co13Cr13Cu5Fe12Ni10,,,,,,799 $\pm$ 42,,,,,,,,,,,,,,,,not a review article ,164
249,J35,10.1016/j.actamat.2019.03.010,Al43Co20Cr22Cu0Fe8Ni7,,,,,,857 $\pm$ 43,,,,,,,,,,,,,,,,not a review article ,164
250,J35,10.1016/j.actamat.2019.03.010,Al47Co14Cr19Cu5Fe10Ni5,,,,,,855 $\pm$ 15,,,,,,,,,,,,,,,,not a review article ,164
251,J35,10.1016/j.actamat.2019.03.010,Al43Co20Cr19Cu0Fe9Ni9,,,,,,816 $\pm$ 37,,,,,,,,,,,,,,,,not a review article ,164
252,J35,10.1016/j.actamat.2019.03.010,Al46Co14Cr23Cu5Fe7Ni5,,,,,,811 $\pm$ 34,,,,,,,,,,,,,,,,not a review article ,164
253,J35,10.1016/j.actamat.2019.03.010,Al44Co14Cr22Cu5Fe9Ni6,,,,,,790 $\pm$ 48,,,,,,,,,,,,,,,,not a review article ,164
254,J35,10.1016/j.actamat.2019.03.010,Al43Co19Cr24Cu0Fe8Ni6,,,,,,855 $\pm$ 30,,,,,,,,,,,,,,,,not a review article ,164
255,J35,10.1016/j.actamat.2019.03.010,Al43Co18Cr24Cu0Fe10Ni5,,,,,,856 $\pm$ 53,,,,,,,,,,,,,,,,not a review article ,164
256,J35,10.1016/j.actamat.2019.03.010,Al47Co14Cr20Cu5Fe9Ni5,,,,,,859 $\pm$ 26,,,,,,,,,,,,,,,,not a review article ,164
257,J35,10.1016/j.actamat.2019.03.010,Al43Co24Cr22Cu0Fe5Ni6,,,,,,875 $\pm$ 58,,,,,,,,,,,,,,,,not a review article ,164
258,J35,10.1016/j.actamat.2019.03.010,Al43Co25Cr22Cu0Fe5Ni5,,,,,,865 $\pm$ 39,,,,,,,,,,,,,,,,not a review article ,164
259,J35,10.1016/j.actamat.2019.03.010,Al43Co24Cr23Cu0Fe5Ni5,,,,,,868 $\pm$ 45,,,,,,,,,,,,,,,,not a review article ,164
260,J35,10.1016/j.actamat.2019.03.010,Al43Co23Cr21Cu0Fe8Ni5,,,,,,863 $\pm$ 34,,,,,,,,,,,,,,,,not a review article ,164
261,J35,10.1016/j.actamat.2019.03.010,Al47Co12Cr20Cu5Fe11Ni5,,,,,,843 $\pm$ 52,,,,,,,,,,,,,,,,not a review article ,164
262,J35,10.1016/j.actamat.2019.03.010,Al43Co15Cr17Cu5Fe14Ni6,,,,,,794 $\pm$ 35,,,,,,,,,,,,,,,,not a review article ,164
263,J35,10.1016/j.actamat.2019.03.010,Al42Co10Cr30Cu5Fe7Ni6,,,,,,783 $\pm$ 27,,,,,,,,,,,,,,,,not a review article ,164
264,J35,10.1016/j.actamat.2019.03.010,Al47Co11Cr22Cu5Fe10Ni5,,,,,,797 $\pm$ 17,,,,,,,,,,,,,,,,not a review article ,164
265,J35,10.1016/j.actamat.2019.03.010,Al47Co13Cr20Cu5Fe10Ni5,,,,,,805 $\pm$ 24,,,,,,,,,,,,,,,,not a review article ,164
266,J35,10.1016/j.actamat.2019.03.010,Al29Co22Cr34Cu0Fe5Ni10,,,,,,699 $\pm$ 10,,,,,,,,,,,,,,,,not a review article ,164
267,J35,10.1016/j.actamat.2019.03.010,Al47Co7Cr16Cu9Fe16Ni5,,,,,,749 $\pm$ 26,,,,,,,,,,,,,,,,not a review article ,164
268,J35,10.1016/j.actamat.2019.03.010,Al43Co14Cr21Cu5Fe12Ni5,,,,,,828 $\pm$ 42,,,,,,,,,,,,,,,,not a review article ,164
269,J35,10.1016/j.actamat.2019.03.010,Al47Co18Cr15Cu5Fe10Ni5,,,,,,849 $\pm$ 37,,,,,,,,,,,,,,,,not a review article ,164
270,J35,10.1016/j.actamat.2019.03.010,Al47Co20Cr18Cu5Fe5Ni5,BCC+B2,M,,,,883 $\pm$ 22,,,,,,,,,,,,,,,,not a review article ,164
271,J35,10.1016/j.actamat.2019.03.010,Al43Co18Cr20Cu0Fe12Ni7,,,,,,864 $\pm$ 23,,,,,,,,,,,,,,,,not a review article ,164
272,J35,10.1016/j.actamat.2019.03.010,Al47Co17Cr16Cu5Fe10Ni5,,,,,,841 $\pm$ 37,,,,,,,,,,,,,,,,not a review article ,164
273,J35,10.1016/j.actamat.2019.03.010,Al43Co24Cr23Cu0Fe5Ni5,,,,,,868 $\pm$ 45,,,,,,,,,,,,,,,,not a review article ,164
274,J35,10.1016/j.actamat.2019.03.010,Al43Co25Cr22Cu0Fe5Ni5,,,,,,865 $\pm$ 39,,,,,,,,,,,,,,,,not a review article ,164
275,J35,10.1016/j.actamat.2019.03.010,Al46Co21Cr18Cu5Fe5Ni5,,,,,,840 $\pm$ 67,,,,,,,,,,,,,,,,not a review article ,164
276,J35,10.1016/j.actamat.2019.03.010,Al43Co22Cr22Cu0Fe8Ni5,,,,,,882 $\pm$ 22,,,,,,,,,,,,,,,,not a review article ,164
277,J35,10.1016/j.actamat.2019.03.010,Al43Co22Cr23Cu0Fe7Ni5,BCC+B2,M,,,,883 $\pm$ 47,,,,,,,,,,,,,,,,not a review article ,164
278,J35,10.1016/j.actamat.2019.03.010,Al43Co20Cr21Cu0Fe9Ni7,,,,,,828 $\pm$ 48,,,,,,,,,,,,,,,,not a review article ,164
279,J35,10.1016/j.actamat.2019.03.010,Al43Co22Cr25Cu0Fe5Ni5,,,,,,848 $\pm$ 27,,,,,,,,,,,,,,,,not a review article ,164
280,J35,10.1016/j.actamat.2019.03.010,Al47Co19Cr19Cu5Fe5Ni5,,,,,,878 $\pm$ 25,,,,,,,,,,,,,,,,not a review article ,164
281,J35,10.1016/j.actamat.2019.03.010,Al43Co29Cr18Cu0Fe5Ni5,,,,,,782 $\pm$ 49,,,,,,,,,,,,,,,,not a review article ,164
282,J36,10.1016/j.msea.2019.01.112,Co20.6Cr19.9Fe19.5Ni20.9Mn19.1,BCC,S,CR+A,,,,T,25.0,1290,1415,1.1,,,,,,,,,,,not a review article ,165
283,J36,10.1016/j.msea.2019.01.112,Co20.6Cr19.9Fe19.5Ni20.9Mn19.1,FCC + BCC + $\sigma$,M,CR+A,1.3 $\pm$ 0.7,,,T,25.0,1135,1260,1.8,,,,,,,fixed grain size; wrong unit,,,,,165
284,J36,10.1016/j.msea.2019.01.112,Co20.6Cr19.9Fe19.5Ni20.9Mn19.1,FCC + BCC + $\sigma$,M,CR+A,2 $\pm$ 0.9,,,T,25.0,585,815,31.7,,,,,,,fixed grain size; wrong unit,,,,,165
285,J36,10.1016/j.msea.2019.01.112,Co20.6Cr19.9Fe19.5Ni20.9Mn19.1,FCC + $\sigma$,M,CR+A,3.6 $\pm$ 1.7,,,T,25.0,425,735,40.2,,,,,,,fixed grain size; wrong unit,,,,,165
286,J36,10.1016/j.msea.2019.01.112,Co20.6Cr19.9Fe19.5Ni20.9Mn19.1,FCC,S,CR+A,17.1 $\pm$ 8.2,,,T,25.0,270,630,46.2,,,,,,,fixed grain size; wrong unit,,,,,165
287,J36,10.1016/j.msea.2019.01.112,Co20.6Cr19.9Fe19.5Ni20.9Mn19.1,,,CR,0.07,,,T,25.0,1120,1175,1.5,,,,,,,added grain size from text,,,,,165
288,J38,10.1016/j.actamat.2019.06.032,Al0.4Hf0.6NbTaTiZr,BCC,S,HIP+A,,,,C,23.0,1841,,,,,,,,,noted grain size greater than 100um,,,9.08,not a review article,166
289,J38,10.1016/j.actamat.2019.06.032,AlCrMoTi,BCC,S,A,,,,C,23.0,1100,,,,,,,,,noted grain size greater than 100um,,,5.98,not a review article,166
290,J38,10.1016/j.actamat.2019.06.032,AlMoNbTi,BCC,S,A,,,,C,23.0,1100,,,,,,,,,noted grain size greater than 100um,,,6.46,not a review article,166
291,J38,10.1016/j.actamat.2019.06.032,HfMo0.5NbTiV0.5,BCC,S,AC,,,,C,23.0,1260,,,,,,,,,noted grain size greater than 100um,,,8.96,not a review article,166
292,J38,10.1016/j.actamat.2019.06.032,HfMoNbTaTiZr,BCC,S,AC,,,,C,23.0,1512,,,,,,,,,noted grain size greater than 100um,,,9.93,not a review article,166
293,J38,10.1016/j.actamat.2019.06.032,HfMoNbTiZr,BCC,S,AC,,,,C,23.0,1575,,,,,,,,,noted grain size greater than 100um,,,8.68,not a review article,166
294,J38,10.1016/j.actamat.2019.06.032,HfMoTaTiZr,BCC,S,AC,,,,C,23.0,1600,,,,,,,,,noted grain size greater than 100um,,,10.18,not a review article,166
295,J38,10.1016/j.actamat.2019.06.032,HfNbTaTiZr,BCC,S,HIP+A,,,,C,23.0,929,,,,,,,,,noted grain size greater than 100um,,,9.89,not a review article,166
296,J38,10.1016/j.actamat.2019.06.032,MoNbTaTiVW,BCC,S,AC,,,,C,23.0,1515,,,,,,,,,noted grain size greater than 100um,,,10.91,not a review article,166
297,J38,10.1016/j.actamat.2019.06.032,MoNbTaTiW,BCC,S,AC,,,,C,23.0,1343,,,,,,,,,noted grain size greater than 100um,,,11.72,not a review article,166
298,J38,10.1016/j.actamat.2019.06.032,MoNbTaVW,BCC,S,HIP+A,,,,C,23.0,1246,,,,,,,,,noted grain size greater than 100um,,,12.29,not a review article,166
299,J38,10.1016/j.actamat.2019.06.032,MoNbTaW,BCC,S,HIP+A,,,,C,23.0,996,,,,,,,,,noted grain size greater than 100um,,,13.6,not a review article,166
300,J38,10.1016/j.actamat.2019.06.032,MoNbTi,BCC,S,HIP+A,,,,C,23.0,1100,,,,,,,,,noted grain size greater than 100um,,,7.67,not a review article,166
301,J38,10.1016/j.actamat.2019.06.032,NbTa0.3TiZr,BCC,S,HIP+A,,,,C,23.0,882,,,,,,,,,noted grain size greater than 100um,,,7.81,not a review article,166
302,J38,10.1016/j.actamat.2019.06.032,NbTiZr,BCC,S,HIP+A,,,,C,23.0,975,,,,,,,,,noted grain size greater than 100um,,,6.63,not a review article,166
303,J38,10.1016/j.actamat.2019.06.032,AlCrMoNbTi,BCC + Laves,M,A,,,,C,23.0,1010,,,,,,,,,noted grain size greater than 100um,,,6.56,not a review article,166
304,J38,10.1016/j.actamat.2019.06.032,Al0.24NbTiVZr,BCC + Laves,M,HIP+A,,,,C,23.0,1240,,,,,,,,,noted grain size greater than 100um,,,6.34,not a review article,166
305,J38,10.1016/j.actamat.2019.06.032,AlMo0.5NbTa0.5TiZr,B2 + BCC,M,HIP+A,,,,C,23.0,2000,,,,,,,,,noted grain size greater than 100um,,,7.14,not a review article,166
306,J38,10.1016/j.actamat.2019.06.032,Cr03NbTiZr,BCC + Laves,M,HIP+A,,,,C,23.0,1576,,,,,,,,,noted grain size greater than 100um,,,6.56,not a review article,166
307,J38,10.1016/j.actamat.2019.06.032,CrMo0.5NbTa0.5TiZr,BCC +BCC + Laves,M,HIP+A,,,,C,23.0,1595,,,,,,,,,noted grain size greater than 100um,,,7.98,not a review article,166
308,J38,10.1016/j.actamat.2019.06.032,HfMo0.5NbSi0.3TiV0.5,BCC + M5Si3,M,AC,,,,C,23.0,1617,,,,,,,,,noted grain size greater than 100um,,,8.46,not a review article,166
309,J38,10.1016/j.actamat.2019.06.032,HfMo0.5NbSi0.5TiV0.5,BCC + M5Si3,M,AC,,,,C,23.0,1787,,,,,,,,,noted grain size greater than 100um,,,8.16,not a review article,166
310,J38,10.1016/j.actamat.2019.06.032,HfMo0.5NbSi0.7TiV0.5,BCC + M5Si3,M,AC,,,,C,23.0,2134,,,,,,,,,noted grain size greater than 100um,,,7.89,not a review article,166
311,J38,10.1016/j.actamat.2019.06.032,MoNbTiVZr,BCC +Laves,M,HIP+A,,,,C,23.0,1706,,,,,,,,,noted grain size greater than 100um,,,7.27,not a review article,166
312,J38,10.1016/j.actamat.2019.06.032,NbRe0.3TiZr,BCC +Laves,M,HIP+A,,,,C,23.0,1244,,,,,,,,,noted grain size greater than 100um,,,7.81,not a review article,166
313,J38,10.1016/j.actamat.2019.06.032,NbTaTiVZr,BCC + BCC,M,HIP+A,,,,C,23.0,1395,,,,,,,,,noted grain size greater than 100um,,,8.43,not a review article,166
314,J38,10.1016/j.actamat.2019.06.032,Al0.4Hf0.6NbTaTiZr,BCC,S,HIP+A,,,,C,1000.0,298,,,,,,,,,noted grain size greater than 100um,,,9.08,not a review article,166
315,J38,10.1016/j.actamat.2019.06.032,AlCrMoTi,BCC,S,A,,,,C,1000.0,375,,,,,,,,,noted grain size greater than 100um,,,5.98,not a review article,166
316,J38,10.1016/j.actamat.2019.06.032,AlMoNbTi,BCC,S,A,,,,C,1000.0,540,,,,,,,,,noted grain size greater than 100um,,,6.46,not a review article,166
317,J38,10.1016/j.actamat.2019.06.032,HfMo0.5NbTiV0.5,BCC,S,AC,,,,C,1000.0,368,,,,,,,,,noted grain size greater than 100um,,,8.96,not a review article,166
318,J38,10.1016/j.actamat.2019.06.032,HfMoNbTaTiZr,BCC,S,AC,,,,C,1000.0,814,,,,,,,,,noted grain size greater than 100um,,,9.93,not a review article,166
319,J38,10.1016/j.actamat.2019.06.032,HfMoNbTiZr,BCC,S,AC,,,,C,1000.0,635,,,,,,,,,noted grain size greater than 100um,,,8.68,not a review article,166
320,J38,10.1016/j.actamat.2019.06.032,HfMoTaTiZr,BCC,S,AC,,,,C,1000.0,855,,,,,,,,,noted grain size greater than 100um,,,10.18,not a review article,166
321,J38,10.1016/j.actamat.2019.06.032,HfNbTaTiZr,BCC,S,HIP+A,,,,C,1000.0,295,,,,,,,,,noted grain size greater than 100um,,,9.89,not a review article,166
322,J38,10.1016/j.actamat.2019.06.032,MoNbTaTiVW,BCC,S,AC,,,,C,1000.0,753,,,,,,,,,noted grain size greater than 100um,,,10.91,not a review article,166
323,J38,10.1016/j.actamat.2019.06.032,MoNbTaTiW,BCC,S,AC,,,,C,1000.0,620,,,,,,,,,noted grain size greater than 100um,,,11.72,not a review article,166
324,J38,10.1016/j.actamat.2019.06.032,MoNbTaVW,BCC,S,HIP+A,,,,C,1000.0,842,,,,,,,,,noted grain size greater than 100um,,,12.29,not a review article,166
325,J38,10.1016/j.actamat.2019.06.032,MoNbTaW,BCC,S,HIP+A,,,,C,1000.0,548,,,,,,,,,noted grain size greater than 100um,,,13.6,not a review article,166
326,J38,10.1016/j.actamat.2019.06.032,MoNbTi,BCC,S,HIP+A,,,,C,1000.0,504,,,,,,,,,noted grain size greater than 100um,,,7.67,not a review article,166
327,J38,10.1016/j.actamat.2019.06.032,NbTa0.3TiZr,BCC,S,HIP+A,,,,C,1000.0,274,,,,,,,,,noted grain size greater than 100um,,,7.81,not a review article,166
328,J38,10.1016/j.actamat.2019.06.032,NbTiZr,BCC,S,HIP+A,,,,C,1000.0,141,,,,,,,,,noted grain size greater than 100um,,,6.63,not a review article,166
329,J38,10.1016/j.actamat.2019.06.032,AlCrMoNbTi,BCC + Laves,M,A,,,,C,1000.0,550,,,,,,,,,noted grain size greater than 100um,,,6.56,not a review article,166
330,J38,10.1016/j.actamat.2019.06.032,Al0.24NbTiVZr,BCC + Laves,M,HIP+A,,,,C,1000.0,82,,,,,,,,,noted grain size greater than 100um,,,6.34,not a review article,166
331,J38,10.1016/j.actamat.2019.06.032,AlMo0.5NbTa0.5TiZr,B2 + BCC,M,HIP+A,,,,C,1000.0,745,,,,,,,,,noted grain size greater than 100um,,,7.14,not a review article,166
332,J38,10.1016/j.actamat.2019.06.032,Cr03NbTiZr,BCC + Laves,M,HIP+A,,,,C,1000.0,139,,,,,,,,,noted grain size greater than 100um,,,6.56,not a review article,166
333,J38,10.1016/j.actamat.2019.06.032,CrMo0.5NbTa0.5TiZr,BCC +BCC + Laves,M,HIP+A,,,,C,1000.0,546,,,,,,,,,noted grain size greater than 100um,,,7.98,not a review article,166
334,J38,10.1016/j.actamat.2019.06.032,HfMo0.5NbSi0.3TiV0.5,BCC + M5Si3,M,AC,,,,C,1000.0,398,,,,,,,,,noted grain size greater than 100um,,,8.46,not a review article,166
335,J38,10.1016/j.actamat.2019.06.032,HfMo0.5NbSi0.5TiV0.5,BCC + M5Si3,M,AC,,,,C,1000.0,614,,,,,,,,,noted grain size greater than 100um,,,8.16,not a review article,166
336,J38,10.1016/j.actamat.2019.06.032,HfMo0.5NbSi0.7TiV0.5,BCC + M5Si3,M,AC,,,,C,1000.0,673,,,,,,,,,noted grain size greater than 100um,,,7.89,not a review article,166
337,J38,10.1016/j.actamat.2019.06.032,MoNbTiVZr,BCC +Laves,M,HIP+A,,,,C,1000.0,467,,,,,,,,,noted grain size greater than 100um,,,7.27,not a review article,166
338,J38,10.1016/j.actamat.2019.06.032,NbRe0.3TiZr,BCC +Laves,M,HIP+A,,,,C,1000.0,323,,,,,,,,,noted grain size greater than 100um,,,7.81,not a review article,166
339,J38,10.1016/j.actamat.2019.06.032,NbTaTiVZr,BCC + BCC,M,HIP+A,,,,C,1000.0,190,,,,,,,,,noted grain size greater than 100um,,,8.43,not a review article,166
340,J38,10.1016/j.actamat.2019.06.032,Al0.4Hf0.6NbTaTiZr,BCC,S,HIP+A,,,,C,1200.0,89,,,,,,,,,noted grain size greater than 100um,,,9.08,not a review article,166
341,J38,10.1016/j.actamat.2019.06.032,AlCrMoTi,BCC,S,A,,,,C,1200.0,100,,,,,,,,,noted grain size greater than 100um,,,5.98,not a review article,166
342,J38,10.1016/j.actamat.2019.06.032,AlMoNbTi,BCC,S,A,,,,C,1200.0,200,,,,,,,,,noted grain size greater than 100um,,,6.46,not a review article,166
343,J38,10.1016/j.actamat.2019.06.032,HfMo0.5NbTiV0.5,BCC,S,AC,,,,C,1200.0,60,,,,,,,,,noted grain size greater than 100um,,,8.96,not a review article,166
344,J38,10.1016/j.actamat.2019.06.032,HfMoNbTaTiZr,BCC,S,AC,,,,C,1200.0,556,,,,,,,,,noted grain size greater than 100um,,,9.93,not a review article,166
345,J38,10.1016/j.actamat.2019.06.032,HfMoNbTiZr,BCC,S,AC,,,,C,1200.0,187,,,,,,,,,noted grain size greater than 100um,,,8.68,not a review article,166
346,J38,10.1016/j.actamat.2019.06.032,HfMoTaTiZr,BCC,S,AC,,,,C,1200.0,404,,,,,,,,,noted grain size greater than 100um,,,10.18,not a review article,166
347,J38,10.1016/j.actamat.2019.06.032,HfNbTaTiZr,BCC,S,HIP+A,,,,C,1200.0,92,,,,,,,,,noted grain size greater than 100um,,,9.89,not a review article,166
348,J38,10.1016/j.actamat.2019.06.032,MoNbTaTiVW,BCC,S,AC,,,,C,1200.0,659,,,,,,,,,noted grain size greater than 100um,,,10.91,not a review article,166
349,J38,10.1016/j.actamat.2019.06.032,MoNbTaTiW,BCC,S,AC,,,,C,1200.0,586,,,,,,,,,noted grain size greater than 100um,,,11.72,not a review article,166
350,J38,10.1016/j.actamat.2019.06.032,MoNbTaVW,BCC,S,HIP+A,,,,C,1200.0,735,,,,,,,,,noted grain size greater than 100um,,,12.29,not a review article,166
351,J38,10.1016/j.actamat.2019.06.032,MoNbTaW,BCC,S,HIP+A,,,,C,1200.0,506,,,,,,,,,noted grain size greater than 100um,,,13.6,not a review article,166
352,J38,10.1016/j.actamat.2019.06.032,MoNbTi,BCC,S,HIP+A,,,,C,1200.0,324,,,,,,,,,noted grain size greater than 100um,,,7.67,not a review article,166
353,J38,10.1016/j.actamat.2019.06.032,NbTa0.3TiZr,BCC,S,HIP+A,,,,C,1200.0,102,,,,,,,,,noted grain size greater than 100um,,,7.81,not a review article,166
354,J38,10.1016/j.actamat.2019.06.032,NbTiZr,BCC,S,HIP+A,,,,C,1200.0,61,,,,,,,,,noted grain size greater than 100um,,,6.63,not a review article,166
355,J38,10.1016/j.actamat.2019.06.032,AlCrMoNbTi,BCC + Laves,M,A,,,,C,1200.0,105,,,,,,,,,noted grain size greater than 100um,,,6.56,not a review article,166
356,J38,10.1016/j.actamat.2019.06.032,Al0.24NbTiVZr,BCC + Laves,M,HIP+A,,,,C,1200.0,24,,,,,,,,,noted grain size greater than 100um,,,6.34,not a review article,166
357,J38,10.1016/j.actamat.2019.06.032,AlMo0.5NbTa0.5TiZr,B2 + BCC,M,HIP+A,,,,C,1200.0,250,,,,,,,,,noted grain size greater than 100um,,,7.14,not a review article,166
358,J38,10.1016/j.actamat.2019.06.032,Cr03NbTiZr,BCC + Laves,M,HIP+A,,,,C,1200.0,32,,,,,,,,,noted grain size greater than 100um,,,6.56,not a review article,166
359,J38,10.1016/j.actamat.2019.06.032,CrMo0.5NbTa0.5TiZr,BCC +BCC + Laves,M,HIP+A,,,,C,1200.0,170,,,,,,,,,noted grain size greater than 100um,,,7.98,not a review article,166
360,J38,10.1016/j.actamat.2019.06.032,HfMo0.5NbSi0.3TiV0.5,BCC + M5Si3,M,AC,,,,C,1200.0,166,,,,,,,,,noted grain size greater than 100um,,,8.46,not a review article,166