IDENTIFIER: Reference ID,FORMULA,PROPERTY: Microstructure,PROPERTY: Processing method,PROPERTY: grain size ($\mu$m),PROPERTY: ROM Density (g/cm$^3$),PROPERTY: Exp. Density (g/cm$^3$),PROPERTY: HV,PROPERTY: Type of test,PROPERTY: Test temperature ($^\circ$C),PROPERTY: YS (MPa),PROPERTY: UTS (MPa),PROPERTY: Elongation (%),PROPERTY: Elongation plastic (%),PROPERTY: Young modulus (GPa),PROPERTY: O content (wppm),PROPERTY: N content (wppm),PROPERTY: C content (wppm),REFERENCE: doi,REFERENCE: year
57,Mo1 Nb1 Ta1 W1,BCC,CAST,,13.8,,,C,1400.0,421.0,,40.0,,,,,,10.1016/j.intermet.2011.01.004,2011
57,Mo1 Nb1 Ta1 W1,BCC,CAST,,13.8,,,C,1600.0,405.0,,40.0,,,,,,10.1016/j.intermet.2011.01.004,2011
58,Mo0.3 Nb1 Ti1 V1 Zr1,BCC,ANNEAL,,6.7,,,C,25.0,1289.0,,,42.0,,,,,10.1016/j.matdes.2015.06.072,2015
58,Mo0.5 Nb1 Ti1 V1 Zr1,BCC,ANNEAL,,6.8,,,C,25.0,1473.0,,,32.0,,,,,10.1016/j.matdes.2015.06.072,2015
58,Mo0.7 Nb1 Ti1 V1 Zr1,BCC,ANNEAL,,7.0,,,C,25.0,1706.0,,,32.0,,,,,10.1016/j.matdes.2015.06.072,2015
58,Mo1 Nb0.769 Ti0.769 V0.769 Zr0.769,BCC,ANNEAL,,7.3,,,C,25.0,1496.0,,,30.0,,,,,10.1016/j.matdes.2015.06.072,2015
58,Mo1 Nb0.667 Ti0.667 V0.667 Zr0.667,BCC,ANNEAL,,7.4,,,C,25.0,1603.0,,,20.0,,,,,10.1016/j.matdes.2015.06.072,2015
58,Mo1 Nb0.588 Ti0.588 V0.588 Zr0.588,BCC,ANNEAL,,7.5,,,C,25.0,1645.0,,,15.0,,,,,10.1016/j.matdes.2015.06.072,2015
58,Mo1 Nb0.5 Ti0.5 V0.5 Zr0.5,BCC,ANNEAL,,7.6,,,C,25.0,1765.0,,,12.0,,,,,10.1016/j.matdes.2015.06.072,2015
58,Mo1 Nb1 Ti1 V1 Zr1,BCC,ANNEAL,,7.1,,,C,25.0,1779.0,,,32.0,,,,,10.1016/j.matdes.2015.06.072,2015
58,Mo1 Nb1 Ti1 V0.3 Zr1,BCC,ANNEAL,,7.3,,,C,25.0,1455.0,,,25.0,,,,,10.1016/j.matdes.2015.06.072,2015
58,Mo0.1 Nb1 Ti1 V0.3 Zr1,BCC,ANNEAL,,6.6,,,C,25.0,932.0,,,45.0,,,,,10.1016/j.matdes.2015.06.072,2015
58,Mo0.3 Nb1 Ti1 V0.3 Zr1,BCC,ANNEAL,,6.8,,,C,25.0,1312.0,,,50.0,,,,,10.1016/j.matdes.2015.06.072,2015
58,Mo0.5 Nb1 Ti1 V0.3 Zr1,BCC,ANNEAL,,6.9,,,C,25.0,1301.0,,,43.0,,,,,10.1016/j.matdes.2015.06.072,2015
58,Mo0.7 Nb1 Ti1 V0.3 Zr1,BCC,ANNEAL,,7.1,,,C,25.0,1436.0,,,27.0,,,,,10.1016/j.matdes.2015.06.072,2015
58,Mo1 Nb0.769 Ti0.769 V0.231 Zr0.769,BCC,ANNEAL,,7.4,,,C,25.0,1603.0,,,20.0,,,,,10.1016/j.matdes.2015.06.072,2015
58,Mo1 Nb0.667 Ti0.667 V0.2 Zr0.667,BCC,ANNEAL,,7.5,,,C,25.0,1576.0,,,8.0,,,,,10.1016/j.matdes.2015.06.072,2015
58,Nb1 Ti1 V0.3 Zr1,BCC,ANNEAL,,6.5,,,C,25.0,866.0,,,45.0,,,,,10.1016/j.matdes.2015.06.072,2015
58,Nb1 Ti1 V1 Zr1,BCC,ANNEAL,,6.5,,,C,25.0,1104.0,,,50.0,,,,,10.1016/j.matdes.2015.06.072,2015
59,Mo1 Nb1 Ti1 V0.25 Zr1,BCC,CAST,,7.3,,,C,25.0,1776.0,3893.0,30.0,,153.0,,,,10.1007/s11837-012-0366-5,
59,Mo1 Nb1 Ti1 V0.5 Zr1,BCC,CAST,,7.2,,,C,25.0,1647.0,3307.0,28.0,,152.0,,,,10.1007/s11837-012-0366-5,
59,Mo1 Nb1 Ti1 V0.75 Zr1,BCC,CAST,,7.2,,,C,25.0,1708.0,3929.0,29.0,,150.0,,,,10.1007/s11837-012-0366-5,
59,Mo1 Nb1 Ti1 V1 Zr1,BCC,CAST,,7.1,,,C,25.0,1786.0,3828.0,26.0,,149.0,,,,10.1007/s11837-012-0366-5,
59,Mo0.667 Nb0.667 Ti0.667 V1 Zr0.667,BCC,CAST,,7.1,,,C,25.0,1735.0,3300.0,20.0,,147.0,,,,10.1007/s11837-012-0366-5,
59,Mo0.5 Nb0.5 Ti0.5 V1 Zr0.5,BCC,CAST,,7.0,,,C,25.0,1538.0,3176.0,23.0,,146.0,,,,10.1007/s11837-012-0366-5,
59,Mo0.333 Nb0.333 Ti0.333 V1 Zr0.333,BCC,CAST,,6.9,,,C,25.0,1418.0,2508.0,24.0,,143.0,,,,10.1007/s11837-012-0366-5,
59,Mo1 Nb1 Ti1 Zr1,BCC,CAST,,7.3,,,C,25.0,1592.0,3450.0,34.0,,155.0,,,,10.1007/s11837-012-0366-5,
60,Co1 Fe1 Mo0.2 Ni1 V1,FCC+Sec.,CAST,,8.0,,267.0,,25.0,,,,,,,,,10.1016/j.jallcom.2015.07.185,2015
60,Co1 Fe1 Mo0.4 Ni1 V1,FCC+Sec.,CAST,,8.1,,402.0,,25.0,,,,,,,,,10.1016/j.jallcom.2015.07.185,2015
60,Co1 Fe1 Mo0.6 Ni1 V1,FCC+Sec.,CAST,,8.2,,557.0,,25.0,,,,,,,,,10.1016/j.jallcom.2015.07.185,2015
60,Co1 Fe1 Mo0.8 Ni1 V1,FCC+Sec.,CAST,,8.3,,606.0,,25.0,,,,,,,,,10.1016/j.jallcom.2015.07.185,2015
60,Co0.833 Fe0.833 Mo0.833 Ni1 V0.833,FCC+Sec.,CAST,,8.4,,602.0,,25.0,,,,,,,,,10.1016/j.jallcom.2015.07.185,2015
60,Co0.714 Fe0.714 Mo0.714 Ni1 V0.714,FCC+Sec.,CAST,,8.5,,538.0,,25.0,,,,,,,,,10.1016/j.jallcom.2015.07.185,2015
60,Co0.625 Fe0.625 Mo0.625 Ni1 V0.625,FCC+Sec.,CAST,,8.5,,520.0,,25.0,,,,,,,,,10.1016/j.jallcom.2015.07.185,2015
60,Co0.556 Fe0.556 Mo0.556 Ni1 V0.556,FCC+Sec.,CAST,,8.5,,510.0,,25.0,,,,,,,,,10.1016/j.jallcom.2015.07.185,2015
60,Co0.5 Fe0.5 Mo0.5 Ni1 V0.5,FCC+Sec.,CAST,,8.5,,382.0,,25.0,,,,,,,,,10.1016/j.jallcom.2015.07.185,2015
60,Co1 Fe1 Mo1 Ni1 V1,FCC+Sec.,CAST,,8.4,,625.0,,25.0,,,,,,,,,10.1016/j.jallcom.2015.07.185,2015
60,Co1 Fe1 Ni1 V1,FCC,CAST,,7.8,,238.0,,25.0,,,,,187.0,,,,10.1016/j.jallcom.2015.07.185,2015
61,Al0.125 Co1 Cr1 Cu1 Fe1 Mn1 Ni1 Ti1 V1,FCC+BCC,CAST,,6.7,,,C,25.0,1862.0,2431.0,1.0,,164.0,,,,10.1016/j.msea.2006.11.049,2006
61,Al0.25 Co1 Cr1 Cu1 Fe1 Mn1 Ni1 Ti1 V1,BCC,CAST,,6.1,,,C,25.0,1465.0,2016.0,2.0,,190.0,,,,10.1016/j.msea.2006.11.049,2006
61,Al0.667 Co1 Cr1 Cu1 Fe1 Mn1 Ni1 Ti1 V1,BCC+Sec.,CAST,,5.1,,,C,25.0,1461.0,1461.0,1.0,,163.0,,,,10.1016/j.msea.2006.11.049,2006
61,Co1 Cr1 Cu1 Fe1 Mn1 Ni1 Ti1 V1,FCC+BCC+Sec.,CAST,,7.3,,,C,25.0,1312.0,1312.0,1.0,,74.0,,,,10.1016/j.msea.2006.11.049,2006
62,Cu1 Mn1 Ni1 Zn0.333,FCC,CAST,,8.3,,147.0,C,25.0,215.0,,60.0,,169.0,,,,10.1016/j.jallcom.2015.07.285,2015
62,Cu1 Mn1 Ni1 Zn0.25,FCC,CAST,,8.3,,109.0,C,25.0,140.0,,65.0,,171.0,,,,10.1016/j.jallcom.2015.07.285,2015
62,Al0.111 Cu1 Mn1 Ni1,FCC+Sec.,CAST,,8.1,,241.0,C,25.0,515.0,,40.0,,,,,,10.1016/j.jallcom.2015.07.285,2015
62,Cu1 Mn1 Ni1 Sn0.111,FCC+Sec.,CAST,,8.3,,318.0,C,25.0,630.0,,20.0,,,,,,10.1016/j.jallcom.2015.07.285,2015
62,Al0.053 Cu1 Mn1 Ni1,FCC,CAST,,8.3,,166.0,C,25.0,330.0,,45.0,,174.0,,,,10.1016/j.jallcom.2015.07.285,2015
62,Cu1 Mn1 Ni1 Sn0.053,FCC+Sec.,CAST,,8.4,,205.0,C,25.0,380.0,,63.0,,,,,,10.1016/j.jallcom.2015.07.285,2015
64,Al0.5 Co1 Cr1 Cu1 Fe1 Ni1,FCC,CAST,,7.9,,,C,1000.0,150.0,,,,,,,,10.1007/s11661-005-0218-9,
64,Al0.5 Co1 Cr1 Cu1 Fe1 Ni1,FCC,CAST,,7.9,,,C,25.0,388.0,,,,,,,,10.1007/s11661-005-0218-9,
64,Al0.5 Co1 Cr1 Cu1 Fe1 Ni1,FCC,CAST,,7.9,,,C,300.0,411.0,,,,,,,,10.1007/s11661-005-0218-9,
64,Al0.5 Co1 Cr1 Cu1 Fe1 Ni1,FCC,CAST,,7.9,,,C,500.0,421.0,,,,,,,,10.1007/s11661-005-0218-9,
64,Al0.5 Co1 Cr1 Cu1 Fe1 Ni1,FCC,CAST,,7.9,,,C,700.0,426.0,,,,,,,,10.1007/s11661-005-0218-9,
64,Al0.5 Co1 Cr1 Cu1 Fe1 Ni1,FCC,CAST,,7.9,,,C,900.0,230.0,,,,,,,,10.1007/s11661-005-0218-9,
64,Al0.5 Co1 Cr1 Cu1 Fe1 Ni1,FCC,CAST,,7.9,,,C,1100.0,80.0,,,,,,,,10.1007/s11661-005-0218-9,
64,Al1 Co0.5 Cr0.5 Cu0.5 Fe0.5 Ni0.5,BCC,CAST,,6.7,,,C,1000.0,116.0,,,,,,,,10.1007/s11661-005-0218-9,
64,Al1 Co0.5 Cr0.5 Cu0.5 Fe0.5 Ni0.5,BCC,CAST,,6.7,,,C,1100.0,79.0,,,,,,,,10.1007/s11661-005-0218-9,
64,Al1 Co0.5 Cr0.5 Cu0.5 Fe0.5 Ni0.5,BCC,CAST,,6.7,,,C,25.0,1620.0,,,,,,,,10.1007/s11661-005-0218-9,
64,Al1 Co0.5 Cr0.5 Cu0.5 Fe0.5 Ni0.5,BCC,CAST,,6.7,,,C,600.0,805.0,,,,,,,,10.1007/s11661-005-0218-9,
64,Al1 Co0.5 Cr0.5 Cu0.5 Fe0.5 Ni0.5,BCC,CAST,,6.7,,,C,500.0,1120.0,,,,,,,,10.1007/s11661-005-0218-9,
64,Al1 Co0.5 Cr0.5 Cu0.5 Fe0.5 Ni0.5,BCC,CAST,,6.7,,,C,700.0,567.0,,,,,,,,10.1007/s11661-005-0218-9,
64,Al1 Co0.5 Cr0.5 Cu0.5 Fe0.5 Ni0.5,BCC,CAST,,6.7,,,C,900.0,214.0,,,,,,,,10.1007/s11661-005-0218-9,
64,Al1 Co0.5 Cr0.5 Cu0.5 Fe0.5 Ni0.5,BCC,CAST,,6.7,,,C,800.0,302.0,,,,,,,,10.1007/s11661-005-0218-9,
64,Al1 Co1 Cr1 Cu1 Fe1 Ni1,FCC+BCC,CAST,,7.4,,,C,1000.0,47.0,,,,,,,,10.1007/s11661-005-0218-9,
64,Al1 Co1 Cr1 Cu1 Fe1 Ni1,FCC+BCC,CAST,,7.4,,,C,25.0,948.0,,,,,,,,10.1007/s11661-005-0218-9,
64,Al1 Co1 Cr1 Cu1 Fe1 Ni1,FCC+BCC,CAST,,7.4,,,C,600.0,561.0,,,,,,,,10.1007/s11661-005-0218-9,
64,Al1 Co1 Cr1 Cu1 Fe1 Ni1,FCC+BCC,CAST,,7.4,,,C,700.0,307.0,,,,,,,,10.1007/s11661-005-0218-9,
64,Al1 Co1 Cr1 Cu1 Fe1 Ni1,FCC+BCC,CAST,,7.4,,,C,800.0,172.0,,,,,,,,10.1007/s11661-005-0218-9,
64,Al1 Co1 Cr1 Cu1 Fe1 Ni1,FCC+BCC,CAST,,7.4,,,C,900.0,98.0,,,,,,,,10.1007/s11661-005-0218-9,
65,Al1 Cr1 Mo1 Nb1 Ti1,BCC,CAST,,6.6,,,C,25.0,,,,,,92.0,undetectable,,10.1016/j.jallcom.2015.11.050,2015
65,Al1 Cr1 Mo1 Nb1 Ti1,BCC,CAST,,6.6,,,C,400.0,1080.0,1100.0,0.02,,,92.0,undetectable,,10.1016/j.jallcom.2015.11.050,2015
65,Al1 Cr1 Mo1 Nb1 Ti1,BCC,CAST,,6.6,,,C,600.0,1060.0,1170.0,0.025,,,92.0,undetectable,,10.1016/j.jallcom.2015.11.050,2015
65,Al1 Cr1 Mo1 Nb1 Ti1,BCC,CAST,,6.6,,,C,800.0,860.0,1000.0,0.02,,,92.0,undetectable,,10.1016/j.jallcom.2015.11.050,2015
65,Al1 Cr1 Mo1 Nb1 Ti1,BCC,CAST,,6.6,,,C,1000.0,594.0,630.0,0.15,,,92.0,undetectable,,10.1016/j.jallcom.2015.11.050,2015
65,Al1 Cr1 Mo1 Nb1 Ti1,BCC,CAST,,6.6,,,C,1200.0,105.0,116.0,0.24,,,92.0,undetectable,,10.1016/j.jallcom.2015.11.050,2015
67,Al1 Cr1 Mo1 Nb1 Ti1,BCC,ANNEAL,,6.6,,,C,600.0,930.0,,,,,92.0,undetectable,,10.1007/s11661-017-4386-1,
67,Al1 Cr1 Mo1 Nb1 Ti1,BCC,ANNEAL,,6.6,,,C,800.0,875.0,,,,,,,,10.1007/s11661-017-4386-1,
67,Al1 Cr1 Mo1 Nb1 Ti1,BCC,ANNEAL,,6.6,,,C,1000.0,550.0,,,,,,,,10.1007/s11661-017-4386-1,
67,Al1 Cr1 Mo1 Nb1 Ti1,BCC,ANNEAL,,6.6,,,C,1200.0,150.0,,,,,,,,10.1007/s11661-017-4386-1,
67,Al1 Cr1 Mo1 Ti1,BCC,ANNEAL,,6.0,,,C,400.0,1070.0,,,,,,,,10.1007/s11661-017-4386-1,
67,Al1 Cr1 Mo1 Ti1,BCC,ANNEAL,,6.0,,,C,600.0,1020.0,,,,,,,,10.1007/s11661-017-4386-1,
67,Al1 Cr1 Mo1 Ti1,BCC,ANNEAL,,6.0,,,C,800.0,875.0,,,,,,,,10.1007/s11661-017-4386-1,
67,Al1 Cr1 Mo1 Ti1,BCC,ANNEAL,,6.0,,,C,1000.0,375.0,,,,,,,,10.1007/s11661-017-4386-1,
67,Al1 Cr1 Mo1 Ti1,BCC,ANNEAL,,6.0,,,C,1200.0,100.0,,,,,,,,10.1007/s11661-017-4386-1,
67,Al1 Mo1 Nb1 Ti1,BCC,ANNEAL,,6.5,,,C,600.0,520.0,,,,,,,,10.1007/s11661-017-4386-1,
67,Al1 Mo1 Nb1 Ti1,BCC,ANNEAL,,6.5,,,C,800.0,500.0,,,,,,,,10.1007/s11661-017-4386-1,
67,Al1 Mo1 Nb1 Ti1,BCC,ANNEAL,,6.5,,,C,1000.0,540.0,,,,,,,,10.1007/s11661-017-4386-1,
67,Al1 Mo1 Nb1 Ti1,BCC,ANNEAL,,6.5,,,C,1200.0,200.0,,,,,,,,10.1007/s11661-017-4386-1,
68,Al1 Nb1 Ti1 V1,B2,ANNEAL,,5.5,,,C,600.0,780.0,1005.0,,,,,,,10.1016/j.msea.2017.08.019,2017
68,Al1 Nb1 Ti1 V1,B2,ANNEAL,,5.5,,,C,800.0,560.0,700.0,,,,,,,10.1016/j.msea.2017.08.019,2017
68,Al1 Nb1 Ti1 V1,B2,ANNEAL,,5.5,,,C,25.0,1000.0,1280.0,,,,,,,10.1016/j.msea.2017.08.019,2017
68,Al1 Nb1 Ti1 V1 Zr1,B2+Laves+Sec.,ANNEAL,,5.7,,,C,600.0,1155.0,1385.0,,,,,,,10.1016/j.msea.2017.08.019,2017
68,Al1 Nb1 Ti1 V1 Zr1,B2+Laves+Sec.,ANNEAL,,5.7,,,C,800.0,550.0,600.0,,,,,,,10.1016/j.msea.2017.08.019,2017
68,Al1 Nb1 Ti1 V1 Zr1,B2+Laves+Sec.,ANNEAL,,5.7,,,C,25.0,1500.0,1675.0,,,,,,,10.1016/j.msea.2017.08.019,2017
68,Al1 Nb1 Ti1 V1 Zr0.1,B2+Sec.,ANNEAL,,5.5,,,C,600.0,975.0,1085.0,,,,,,,10.1016/j.msea.2017.08.019,2017
68,Al1 Nb1 Ti1 V1 Zr0.1,B2+Sec.,ANNEAL,,5.5,,,C,800.0,865.0,920.0,,,,,,,10.1016/j.msea.2017.08.019,2017
68,Al1 Nb1 Ti1 V1 Zr0.1,B2+Sec.,ANNEAL,,5.5,,,C,25.0,1290.0,1395.0,,,,,,,10.1016/j.msea.2017.08.019,2017
68,Al1 Nb1 Ti1 V1 Zr0.25,B2+Sec.,ANNEAL,,5.6,,,C,600.0,1065.0,1260.0,,,,,,,10.1016/j.msea.2017.08.019,2017
68,Al1 Nb1 Ti1 V1 Zr0.25,B2+Sec.,ANNEAL,,5.6,,,C,800.0,855.0,865.0,,,,,,,10.1016/j.msea.2017.08.019,2017
68,Al1 Nb1 Ti1 V1 Zr0.25,B2+Sec.,ANNEAL,,5.6,,,C,25.0,1360.0,1480.0,,,,,,,10.1016/j.msea.2017.08.019,2017
68,Al1 Nb1 Ti1 V1 Zr0.5,B2+Laves+Sec.,ANNEAL,,5.6,,,C,600.0,1135.0,1425.0,,,,,,,10.1016/j.msea.2017.08.019,2017
68,Al1 Nb1 Ti1 V1 Zr0.5,B2+Laves+Sec.,ANNEAL,,5.6,,,C,800.0,675.0,740.0,,,,,,,10.1016/j.msea.2017.08.019,2017
68,Al1 Nb1 Ti1 V1 Zr0.5,B2+Laves+Sec.,ANNEAL,,5.6,,,C,25.0,1485.0,,,,,,,,10.1016/j.msea.2017.08.019,2017
68,Al0.667 Nb0.667 Ti0.667 V0.667 Zr1,B2+Laves+Sec.,ANNEAL,,5.8,,,C,600.0,1195.0,1195.0,,,,,,,10.1016/j.msea.2017.08.019,2017
68,Al0.667 Nb0.667 Ti0.667 V0.667 Zr1,B2+Laves+Sec.,ANNEAL,,5.8,,,C,800.0,180.0,395.0,,,,,,,10.1016/j.msea.2017.08.019,2017
68,Al0.667 Nb0.667 Ti0.667 V0.667 Zr1,B2+Laves+Sec.,ANNEAL,,5.8,,,C,25.0,1535.0,1550.0,,,,,,,10.1016/j.msea.2017.08.019,2017
69,Co1 Cr1 Mo1 Nb1,BCC+Laves,CAST,,8.8,,,C,25.0,,1419.6,,,,,,,10.1007/s11665-017-2799-z,
69,Co1 Cr1 Mo1 Nb1 Ti1,BCC+Laves,CAST,,7.8,,,C,25.0,,1096.8,,,,,,,10.1007/s11665-017-2799-z,
69,Co1 Cr1 Mo1 Nb1 Ti0.2,BCC+Laves,CAST,,8.5,,,C,25.0,,1905.6,,,,,,,10.1007/s11665-017-2799-z,
69,Co1 Cr1 Mo1 Nb1 Ti0.4,BCC,CAST,,8.3,,,C,25.0,,1771.3,,,220.1,,,,10.1007/s11665-017-2799-z,
69,Co1 Cr1 Mo1 Nb1 Ti0.5,BCC+Laves,CAST,,8.2,,,C,25.0,,1609.2,,,,,,,10.1007/s11665-017-2799-z,
70,Cr1 Hf1 Nb1 Ti1 Zr1,BCC+Laves,ANNEAL,,8.2,,,C,25.0,1457.0,1908.0,,,,,,,10.1016/j.ijrmhm.2014.07.009,2014
70,Cr1 Hf1 Nb1 Ti1 Zr1,BCC+Laves,ANNEAL,,8.2,,,C,25.0,1420.0,1885.0,4.2,,,,,,10.1016/j.ijrmhm.2014.07.009,2014
70,Cr1 Hf1 Nb1 Ti1 Zr1,BCC+Laves,ANNEAL,,8.2,,,C,25.0,1328.0,1884.0,,,,,,,10.1016/j.ijrmhm.2014.07.009,2014
70,Cr1 Hf1 Nb1 Ti1 Zr1,BCC+Laves,ANNEAL,,8.2,,,C,25.0,1322.0,1726.0,,,,,,,10.1016/j.ijrmhm.2014.07.009,2014
70,Cr1 Hf1 Nb1 Ti1 Zr1,BCC+Laves,CAST,,8.2,,,C,25.0,1375.0,2130.0,3.0,,,,,,10.1016/j.ijrmhm.2014.07.009,2014
70,Hf1 Nb1 Ti1 V1 Zr1,BCC+Laves,ANNEAL,,8.0,,,C,25.0,1157.0,1468.0,,,,,,,10.1016/j.ijrmhm.2014.07.009,2014
70,Hf1 Nb1 Ti1 V1 Zr1,BCC,ANNEAL,,8.0,,,C,25.0,1253.0,1393.0,,,99.0,,,,10.1016/j.ijrmhm.2014.07.009,2014
70,Hf1 Nb1 Ti1 V1 Zr1,BCC,ANNEAL,,8.0,,,C,25.0,1140.0,1463.0,,,99.0,,,,10.1016/j.ijrmhm.2014.07.009,2014
70,Hf1 Nb1 Ti1 V1 Zr1,BCC,ANNEAL,,8.0,,,C,25.0,1120.0,1376.0,30.0,,99.0,,,,10.1016/j.ijrmhm.2014.07.009,2014
70,Hf1 Nb1 Ti1 V1 Zr1,BCC+Laves,CAST,,8.0,,,C,25.0,1170.0,1463.0,29.6,,,,,,10.1016/j.ijrmhm.2014.07.009,2014
71,Cr1 Ta1 Ti0.17 V1 W1,BCC+Laves,POWDER,,12.5,,715.0,C,25.0,2034.0,,1.5,,,,,,10.1016/j.matchemphys.2017.06.054,2017
71,Cr1 Ta1 Ti0.17 V1 W1,BCC+Laves,POWDER,,12.5,,,C,1200.0,750.0,,1.5,,,,,,10.1016/j.matchemphys.2017.06.054,2017
71,Cr1 Ta1 Ti0.3 V1 W1,BCC+Laves,POWDER,,12.2,,780.0,C,25.0,2050.0,,1.5,,,,,,10.1016/j.matchemphys.2017.06.054,2017
71,Cr1 Ta1 Ti0.3 V1 W1,BCC+Laves,POWDER,,12.2,,,C,1200.0,586.0,,1.5,,,,,,10.1016/j.matchemphys.2017.06.054,2017
71,Cr1 Ta1 V1 W1,BCC+Laves,POWDER,,12.9,,715.0,C,25.0,2327.0,,1.5,,,,,,10.1016/j.matchemphys.2017.06.054,2017
71,Cr1 Ta1 V1 W1,BCC+Laves,POWDER,,12.9,,,C,1200.0,979.0,,1.5,,,,,,10.1016/j.matchemphys.2017.06.054,2017
72,Hf0.26 Nb1 Ta1 Ti0.578 Zr0.416,BCC,CAST,,10.4,,,C,60.0,795.0,,,,125.0,,,,10.1080/14786435.2015.1028506,2015
72,Hf0.26 Nb1 Ta1 Ti0.578 Zr0.416,BCC,CAST,,10.4,,,C,100.0,765.0,,,,,,,,10.1080/14786435.2015.1028506,2015
72,Hf0.26 Nb1 Ta1 Ti0.578 Zr0.416,BCC,CAST,,10.4,,,C,200.0,650.0,,,,,,,,10.1080/14786435.2015.1028506,2015
72,Hf0.26 Nb1 Ta1 Ti0.578 Zr0.416,BCC,CAST,,10.4,,,C,300.0,590.0,,,,,,,,10.1080/14786435.2015.1028506,2015
72,Hf0.26 Nb1 Ta1 Ti0.578 Zr0.416,BCC,CAST,,10.4,,,C,25.0,845.0,,,,,,,,10.1080/14786435.2015.1028506,2015
73,Hf0.5 Mo0.5 Nb1 Si0.1 Ti1 Zr1,BCC+Sec.,CAST,,7.7,,442.0,C,25.0,1350.0,2150.0,,28.0,,,,,10.1016/j.jallcom.2015.11.091,2015
73,Hf0.5 Mo0.5 Nb1 Si0.3 Ti1 Zr1,BCC+Sec.,CAST,,7.5,,494.0,C,25.0,1370.0,1950.0,,23.0,,,,,10.1016/j.jallcom.2015.11.091,2015
73,Hf0.5 Mo0.5 Nb1 Si0.5 Ti1 Zr1,BCC+Sec.,CAST,,7.2,,524.0,C,25.0,1600.0,1900.0,,23.0,,,,,10.1016/j.jallcom.2015.11.091,2015
73,Hf0.5 Mo0.5 Nb1 Si0.7 Ti1 Zr1,BCC+Sec.,CAST,,7.0,,580.0,C,25.0,1550.0,1900.0,,12.0,,,,,10.1016/j.jallcom.2015.11.091,2015
73,Hf0.5 Mo0.5 Nb1 Si0.9 Ti1 Zr1,BCC+Sec.,CAST,,6.8,,640.0,C,25.0,1650.0,2000.0,,9.0,,,,,10.1016/j.jallcom.2015.11.091,2015
73,Hf0.5 Mo0.5 Nb1 Ti1 Zr1,BCC+Sec.,CAST,,7.9,,400.0,C,25.0,1150.0,1500.0,,25.0,123.1,,,,10.1016/j.jallcom.2015.11.091,2015
74,Hf0.5 Nb0.667 Ta0.333 Ti1 Zr0.833,BCC,WROUGHT,,8.4,,,C,-268.8,2250.0,,,,103.1,,,,10.1016/j.msea.2017.10.073,2017
74,Hf0.5 Nb0.667 Ta0.333 Ti1 Zr0.833,BCC,WROUGHT,,8.4,,,C,-268.8,2210.0,,,,103.1,,,,10.1016/j.msea.2017.10.073,2017
74,Hf0.5 Nb0.667 Ta0.333 Ti1 Zr0.833,BCC,WROUGHT,,8.4,,,C,-196.0,1880.0,,,,,,,,10.1016/j.msea.2017.10.073,2017
74,Hf0.5 Nb0.667 Ta0.333 Ti1 Zr0.833,BCC,WROUGHT,,8.4,,,C,-196.0,1750.0,,,,,,,,10.1016/j.msea.2017.10.073,2017
74,Hf0.5 Nb0.667 Ta0.333 Ti1 Zr0.833,BCC,WROUGHT,,8.4,,,C,-153.0,1640.0,,,,,,,,10.1016/j.msea.2017.10.073,2017
74,Hf0.5 Nb0.667 Ta0.333 Ti1 Zr0.833,BCC,WROUGHT,,8.4,,,C,-153.0,1550.0,,,,,,,,10.1016/j.msea.2017.10.073,2017
74,Hf0.5 Nb0.667 Ta0.333 Ti1 Zr0.833,BCC,WROUGHT,,8.4,,,C,-103.0,1380.0,,,,,,,,10.1016/j.msea.2017.10.073,2017
74,Hf0.5 Nb0.667 Ta0.333 Ti1 Zr0.833,BCC,WROUGHT,,8.4,,,C,-103.0,1370.0,,,,,,,,10.1016/j.msea.2017.10.073,2017
74,Hf0.5 Nb0.667 Ta0.333 Ti1 Zr0.833,BCC,WROUGHT,,8.4,,,C,-43.0,1200.0,,,,,,,,10.1016/j.msea.2017.10.073,2017
74,Hf0.5 Nb0.667 Ta0.333 Ti1 Zr0.833,BCC,WROUGHT,,8.4,,,C,-43.0,1180.0,,,,,,,,10.1016/j.msea.2017.10.073,2017
74,Hf0.5 Nb0.667 Ta0.333 Ti1 Zr0.833,BCC,WROUGHT,,8.4,,,C,72.0,1040.0,,,,,,,,10.1016/j.msea.2017.10.073,2017
74,Hf0.5 Nb0.667 Ta0.333 Ti1 Zr0.833,BCC,WROUGHT,,8.4,,,C,72.0,1020.0,,,,,,,,10.1016/j.msea.2017.10.073,2017
74,Hf0.5 Nb0.667 Ta0.333 Ti1 Zr0.833,BCC,WROUGHT,,8.4,,,C,25.0,1150.0,,,,,,,,10.1016/j.msea.2017.10.073,2017
74,Hf0.5 Nb0.667 Ta0.333 Ti1 Zr0.833,BCC,WROUGHT,,8.4,,,C,25.0,1100.0,,,,,,,,10.1016/j.msea.2017.10.073,2017
74,Hf0.5 Nb0.667 Ta0.333 Ti1 Zr0.833,BCC,WROUGHT,,8.4,,,C,-268.8,2390.0,,,,103.1,,,,10.1016/j.msea.2017.10.073,2017
74,Hf0.5 Nb0.667 Ta0.333 Ti1 Zr0.833,BCC,WROUGHT,,8.4,,,C,-196.0,1920.0,,,,,,,,10.1016/j.msea.2017.10.073,2017
74,Hf0.5 Nb0.667 Ta0.333 Ti1 Zr0.833,BCC,WROUGHT,,8.4,,,C,-153.0,1370.0,,,,,,,,10.1016/j.msea.2017.10.073,2017
74,Hf0.5 Nb0.667 Ta0.333 Ti1 Zr0.833,BCC,WROUGHT,,8.4,,,C,-103.0,1250.0,,,,,,,,10.1016/j.msea.2017.10.073,2017
74,Hf0.5 Nb0.667 Ta0.333 Ti1 Zr0.833,BCC,WROUGHT,,8.4,,,C,-43.0,1020.0,,,,,,,,10.1016/j.msea.2017.10.073,2017
74,Hf0.5 Nb0.667 Ta0.333 Ti1 Zr0.833,BCC,WROUGHT,,8.4,,,C,72.0,640.0,,,,,,,,10.1016/j.msea.2017.10.073,2017
74,Hf0.5 Nb0.667 Ta0.333 Ti1 Zr0.833,BCC,WROUGHT,,8.4,,,C,25.0,890.0,,,,,,,,10.1016/j.msea.2017.10.073,2017
75,Hf1 Mo0.25 Nb1 Ta1 Ti1 Zr1,BCC,CAST,,9.9,,,C,25.0,1112.0,,,,121.0,,,,10.1016/j.matlet.2016.03.133,2016
75,Hf1 Mo0.5 Nb1 Ta1 Ti1 Zr1,BCC,CAST,,9.9,,,C,25.0,1317.0,,,,130.5,,,,10.1016/j.matlet.2016.03.133,2016
75,Hf1 Mo0.75 Nb1 Ta1 Ti1 Zr1,BCC,CAST,,9.9,,,C,25.0,1373.0,,,,139.1,,,,10.1016/j.matlet.2016.03.133,2016
75,Hf1 Mo1 Nb1 Ta1 Ti1 Zr1,BCC,CAST,,9.9,,,C,25.0,1512.0,1800.0,,,147.0,,,,10.1016/j.matlet.2016.03.133,2016
75,Hf1 Nb1 Ta1 Ti1 Zr1,BCC,CAST,,9.9,,,C,25.0,1015.0,,,,110.6,,,,10.1016/j.matlet.2016.03.133,2016
76,Hf1 Mo0.5 Nb1 Si0.3 Ti1 V0.5,BCC+Sec.,CAST,,8.5,,,C,1000.0,398.0,430.0,,,,,,,10.1016/j.jallcom.2016.10.014,2016
76,Hf1 Mo0.5 Nb1 Si0.3 Ti1 V0.5,BCC+Sec.,CAST,,8.5,,,C,25.0,1617.0,2016.0,,,,,,,10.1016/j.jallcom.2016.10.014,2016
76,Hf1 Mo0.5 Nb1 Si0.3 Ti1 V0.5,BCC+Sec.,CAST,,8.5,,,C,1200.0,166.0,187.0,,,,,,,10.1016/j.jallcom.2016.10.014,2016
76,Hf1 Mo0.5 Nb1 Si0.5 Ti1 V0.5,BCC+Sec.,CAST,,8.2,,,C,1000.0,614.0,696.0,,,,,,,10.1016/j.jallcom.2016.10.014,2016
76,Hf1 Mo0.5 Nb1 Si0.5 Ti1 V0.5,BCC+Sec.,CAST,,8.2,,,C,25.0,1787.0,2052.0,,,,,,,10.1016/j.jallcom.2016.10.014,2016
76,Hf1 Mo0.5 Nb1 Si0.5 Ti1 V0.5,BCC+Sec.,CAST,,8.2,,,C,1200.0,188.0,219.0,,,,,,,10.1016/j.jallcom.2016.10.014,2016
76,Hf1 Mo0.5 Nb1 Si0.7 Ti1 V0.5,BCC+Sec.,CAST,,7.9,,,C,1000.0,673.0,741.0,,,,,,,10.1016/j.jallcom.2016.10.014,2016
76,Hf1 Mo0.5 Nb1 Si0.7 Ti1 V0.5,BCC+Sec.,CAST,,7.9,,,C,25.0,2134.0,2242.0,,,,,,,10.1016/j.jallcom.2016.10.014,2016
76,Hf1 Mo0.5 Nb1 Si0.7 Ti1 V0.5,BCC+Sec.,CAST,,7.9,,,C,1200.0,235.0,268.0,,,,,,,10.1016/j.jallcom.2016.10.014,2016
76,Hf1 Mo0.5 Nb1 Ti1 V0.5,BCC,CAST,,9.0,,,C,1000.0,368.0,394.0,,,131.9,,,,10.1016/j.jallcom.2016.10.014,2016
76,Hf1 Mo0.5 Nb1 Ti1 V0.5,BCC,CAST,,9.0,,,C,1200.0,60.0,,,,,,,,10.1016/j.jallcom.2016.10.014,2016
76,Hf1 Mo0.5 Nb1 Ti1 V0.5,BCC,CAST,,9.0,,,C,25.0,1260.0,,,,,,,,10.1016/j.jallcom.2016.10.014,2016
77,Hf0.787 Nb0.142 Ta0.142 Ti1 Zr0.787,BCC,WROUGHT,,8.5,,,T,25.0,540.0,995.0,,,95.2,,,,10.1080/21663831.2016.1221861,2016
78,Al0.25 Nb1 Ta1 Ti1 Zr1,BCC+B2,OTHER,,8.6,,,C,1000.0,366.0,408.0,,,,,,,10.1016/j.matdes.2017.11.033,2017
78,Al0.25 Nb1 Ta1 Ti1 Zr1,BCC+B2,OTHER,,8.6,,,C,25.0,1745.0,1830.0,,,,,,,10.1016/j.matdes.2017.11.033,2017
78,Al0.5 Mo0.5 Nb1 Ta0.5 Ti1 Zr1,BCC+B2,OTHER,,7.6,,,C,1000.0,579.0,646.0,,,,,,,10.1016/j.matdes.2017.11.033,2017
78,Al0.5 Mo0.5 Nb1 Ta0.5 Ti1 Zr1,BCC+B2,OTHER,,7.6,,,C,25.0,2350.0,2460.0,,,,,,,10.1016/j.matdes.2017.11.033,2017
78,Al1 Mo0.5 Nb1 Ta0.5 Ti1 Zr1,BCC+B2,OTHER,,7.1,,,C,1000.0,745.0,792.0,,,,,,,10.1016/j.matdes.2017.11.033,2017
78,Al1 Mo0.5 Nb1 Ta0.5 Ti1 Zr1,BCC+B2,OTHER,,7.1,,,C,25.0,2197.0,2370.0,,,,,,,10.1016/j.matdes.2017.11.033,2017