IDENTIFIER: Reference ID,FORMULA,PROPERTY: Microstructure,PROPERTY: Processing method,PROPERTY: BCC/FCC/other,PROPERTY: grain size ($\mu$m),PROPERTY: Exp. Density (g/cm$^3$),PROPERTY: Computed Density (g/cm$^3$),PROPERTY: HV,PROPERTY: Type of test,PROPERTY: Test temperature ($^\circ$C),PROPERTY: YS (MPa),PROPERTY: UTS (MPa),PROPERTY: Elongation (%),PROPERTY: Elongation plastic (%),PROPERTY: Exp. Young modulus (GPa),PROPERTY: Computed Young modulus (GPa),PROPERTY: O content (wppm),PROPERTY: N content (wppm),PROPERTY: C content (wppm),REFERENCE: doi,REFERENCE: year,REFERENCE: title
243,Mo1 Nb1 Si0.25 Ta1 W1,,POWDER,other,,,13.0,567.0,C,25.0,1826.0,,16.5,10.5,,245,,,,10.1007/s10853-019-03567-9,2019,Correction to: Effect of Si additions on microstructure and mechanical properties of refractory NbTaWMo high-entropy alloys
243,Mo1 Nb1 Si0.5 Ta1 W1,,POWDER,other,,,12.4,697.0,C,25.0,1883.0,,11.0,5.8,,234,,,,10.1007/s10853-019-03567-9,2019,Correction to: Effect of Si additions on microstructure and mechanical properties of refractory NbTaWMo high-entropy alloys
243,Mo1 Nb1 Si0.75 Ta1 W1,,POWDER,other,,,11.9,682.6,C,25.0,2483.0,,6.2,1.6,,224,,,,10.1007/s10853-019-03567-9,2019,Correction to: Effect of Si additions on microstructure and mechanical properties of refractory NbTaWMo high-entropy alloys
243,Mo1 Nb1 Ta1 W1,BCC,POWDER,BCC,,,13.7,420.0,,200.0,,,,,,258,,,,10.1007/s10853-019-03567-9,2019,Correction to: Effect of Si additions on microstructure and mechanical properties of refractory NbTaWMo high-entropy alloys
243,Mo1 Nb1 Si0.25 Ta1 W1,,POWDER,other,,,13.0,425.0,,200.0,,,,,,245,,,,10.1007/s10853-019-03567-9,2019,Correction to: Effect of Si additions on microstructure and mechanical properties of refractory NbTaWMo high-entropy alloys
243,Mo1 Nb1 Si0.5 Ta1 W1,,POWDER,other,,,12.4,535.0,,200.0,,,,,,234,,,,10.1007/s10853-019-03567-9,2019,Correction to: Effect of Si additions on microstructure and mechanical properties of refractory NbTaWMo high-entropy alloys
243,Mo1 Nb1 Si0.75 Ta1 W1,,POWDER,other,,,11.9,640.0,,200.0,,,,,,224,,,,10.1007/s10853-019-03567-9,2019,Correction to: Effect of Si additions on microstructure and mechanical properties of refractory NbTaWMo high-entropy alloys
243,Mo1 Nb1 Ta1 W1,BCC,POWDER,BCC,,,13.7,425.0,,400.0,,,,,,258,,,,10.1007/s10853-019-03567-9,2019,Correction to: Effect of Si additions on microstructure and mechanical properties of refractory NbTaWMo high-entropy alloys
243,Mo1 Nb1 Si0.25 Ta1 W1,,POWDER,other,,,13.0,420.0,,400.0,,,,,,245,,,,10.1007/s10853-019-03567-9,2019,Correction to: Effect of Si additions on microstructure and mechanical properties of refractory NbTaWMo high-entropy alloys
243,Mo1 Nb1 Si0.5 Ta1 W1,,POWDER,other,,,12.4,560.0,,400.0,,,,,,234,,,,10.1007/s10853-019-03567-9,2019,Correction to: Effect of Si additions on microstructure and mechanical properties of refractory NbTaWMo high-entropy alloys
243,Mo1 Nb1 Si0.75 Ta1 W1,,POWDER,other,,,11.9,600.0,,400.0,,,,,,224,,,,10.1007/s10853-019-03567-9,2019,Correction to: Effect of Si additions on microstructure and mechanical properties of refractory NbTaWMo high-entropy alloys
243,Mo1 Nb1 Ta1 W1,BCC,POWDER,BCC,,,13.7,340.0,,600.0,,,,,,258,,,,10.1007/s10853-019-03567-9,2019,Correction to: Effect of Si additions on microstructure and mechanical properties of refractory NbTaWMo high-entropy alloys
243,Mo1 Nb1 Si0.25 Ta1 W1,,POWDER,other,,,13.0,425.0,,600.0,,,,,,245,,,,10.1007/s10853-019-03567-9,2019,Correction to: Effect of Si additions on microstructure and mechanical properties of refractory NbTaWMo high-entropy alloys
243,Mo1 Nb1 Si0.5 Ta1 W1,,POWDER,other,,,12.4,540.0,,600.0,,,,,,234,,,,10.1007/s10853-019-03567-9,2019,Correction to: Effect of Si additions on microstructure and mechanical properties of refractory NbTaWMo high-entropy alloys
243,Mo1 Nb1 Si0.75 Ta1 W1,,POWDER,other,,,11.9,650.0,,600.0,,,,,,224,,,,10.1007/s10853-019-03567-9,2019,Correction to: Effect of Si additions on microstructure and mechanical properties of refractory NbTaWMo high-entropy alloys
243,Mo1 Nb1 Ta1 W1,BCC,POWDER,BCC,,,13.7,335.5,,800.0,,,,,,258,,,,10.1007/s10853-019-03567-9,2019,Correction to: Effect of Si additions on microstructure and mechanical properties of refractory NbTaWMo high-entropy alloys
243,Mo1 Nb1 Si0.25 Ta1 W1,,POWDER,other,,,13.0,399.2,,800.0,,,,,,245,,,,10.1007/s10853-019-03567-9,2019,Correction to: Effect of Si additions on microstructure and mechanical properties of refractory NbTaWMo high-entropy alloys
243,Mo1 Nb1 Si0.5 Ta1 W1,,POWDER,other,,,12.4,550.5,,800.0,,,,,,234,,,,10.1007/s10853-019-03567-9,2019,Correction to: Effect of Si additions on microstructure and mechanical properties of refractory NbTaWMo high-entropy alloys
243,Mo1 Nb1 Si0.75 Ta1 W1,,POWDER,other,,,11.9,597.3,,800.0,,,,,,224,,,,10.1007/s10853-019-03567-9,2019,Correction to: Effect of Si additions on microstructure and mechanical properties of refractory NbTaWMo high-entropy alloys
243,Mo1 Nb1 Si0.75 Ta1 W1,,POWDER,other,,,11.9,,C,1200.0,960.0,,22.7,,,224,,,,10.1007/s10853-019-03567-9,2019,Correction to: Effect of Si additions on microstructure and mechanical properties of refractory NbTaWMo high-entropy alloys
244,Co1 Cr1 Fe1 Mn1 Ni1,FCC,WROUGHT,FCC,,,8.1,,T,25.0,1199.26,1335.35,4.37,,,219,,,,10.1007/s11661-019-05231-y,2019,Effect of Annealing Temperature on Microstructure and Mechanical Properties of a Severe Cold-Rolled FeCoCrNiMn High-Entropy Alloy
244,Co1 Cr1 Fe1 Mn1 Ni1,FCC,WROUGHT,FCC,,,8.1,,T,25.0,1269.23,1366.3,1.16,,,219,,,,10.1007/s11661-019-05231-y,2019,Effect of Annealing Temperature on Microstructure and Mechanical Properties of a Severe Cold-Rolled FeCoCrNiMn High-Entropy Alloy
244,Co1 Cr1 Fe1 Mn1 Ni1,FCC,WROUGHT,FCC,,,8.1,,T,25.0,1371.21,1402.83,1.58,,,219,,,,10.1007/s11661-019-05231-y,2019,Effect of Annealing Temperature on Microstructure and Mechanical Properties of a Severe Cold-Rolled FeCoCrNiMn High-Entropy Alloy
244,Co1 Cr1 Fe1 Mn1 Ni1,FCC,WROUGHT,FCC,0.166,,8.1,,T,25.0,1362.74,1471.05,3.15,,,219,,,,10.1007/s11661-019-05231-y,2019,Effect of Annealing Temperature on Microstructure and Mechanical Properties of a Severe Cold-Rolled FeCoCrNiMn High-Entropy Alloy
244,Co1 Cr1 Fe1 Mn1 Ni1,FCC,WROUGHT,FCC,0.248,,8.1,,T,25.0,1241.81,1325.25,4.31,,,219,,,,10.1007/s11661-019-05231-y,2019,Effect of Annealing Temperature on Microstructure and Mechanical Properties of a Severe Cold-Rolled FeCoCrNiMn High-Entropy Alloy
244,Co1 Cr1 Fe1 Mn1 Ni1,FCC,WROUGHT,FCC,0.46799999999999997,,8.1,,T,25.0,930.3,1021.32,19.01,,,219,,,,10.1007/s11661-019-05231-y,2019,Effect of Annealing Temperature on Microstructure and Mechanical Properties of a Severe Cold-Rolled FeCoCrNiMn High-Entropy Alloy
244,Co1 Cr1 Fe1 Mn1 Ni1,FCC,WROUGHT,FCC,1.79,,8.1,,T,25.0,729.21,901.74,26.3,,,219,,,,10.1007/s11661-019-05231-y,2019,Effect of Annealing Temperature on Microstructure and Mechanical Properties of a Severe Cold-Rolled FeCoCrNiMn High-Entropy Alloy
244,Co1 Cr1 Fe1 Mn1 Ni1,FCC,WROUGHT,FCC,4.57,,8.1,,T,25.0,494.82,735.6,38.7,,,219,,,,10.1007/s11661-019-05231-y,2019,Effect of Annealing Temperature on Microstructure and Mechanical Properties of a Severe Cold-Rolled FeCoCrNiMn High-Entropy Alloy
244,Co1 Cr1 Fe1 Mn1 Ni1,FCC,WROUGHT,FCC,13.45,,8.1,,T,25.0,366.88,673.25,42.55,,,219,,,,10.1007/s11661-019-05231-y,2019,Effect of Annealing Temperature on Microstructure and Mechanical Properties of a Severe Cold-Rolled FeCoCrNiMn High-Entropy Alloy
244,Co1 Cr1 Fe1 Mn1 Ni1,FCC,WROUGHT,FCC,22.37,,8.1,,T,25.0,290.65,618.51,43.15,,,219,,,,10.1007/s11661-019-05231-y,2019,Effect of Annealing Temperature on Microstructure and Mechanical Properties of a Severe Cold-Rolled FeCoCrNiMn High-Entropy Alloy
244,Co1 Cr1 Fe1 Mn1 Ni1,FCC,WROUGHT,FCC,30.6,,8.1,,T,25.0,258.76,598.75,45.05,,,219,,,,10.1007/s11661-019-05231-y,2019,Effect of Annealing Temperature on Microstructure and Mechanical Properties of a Severe Cold-Rolled FeCoCrNiMn High-Entropy Alloy
245,C0.1 Co1 Cr1 Fe1 Mn1 Ni1 Ti0.1,,POWDER,other,,7.5,7.9,457.0,C,25.0,1616.0,,,4.5 ,,,,,,10.1016/j.vacuum.2019.04.043,2019,Microstructure and mechanical properties of FeCoCrNiMnTi0.1C0.1 high-entropy alloy produced by mechanical alloying and vacuum hot pressing sintering
245,C0.1 Co1 Cr1 Fe1 Mn1 Ni1 Ti0.1,,POWDER,other,,7.64,7.9,461.0,C,25.0,1652.0,,,10 ,,,,,,10.1016/j.vacuum.2019.04.043,2019,Microstructure and mechanical properties of FeCoCrNiMnTi0.1C0.1 high-entropy alloy produced by mechanical alloying and vacuum hot pressing sintering
245,C0.1 Co1 Cr1 Fe1 Mn1 Ni1 Ti0.1,,POWDER,other,,7.66,7.9,428.0,C,25.0,1490.0,,,11.4 ,,,,,,10.1016/j.vacuum.2019.04.043,2019,Microstructure and mechanical properties of FeCoCrNiMnTi0.1C0.1 high-entropy alloy produced by mechanical alloying and vacuum hot pressing sintering
245,C0.1 Co1 Cr1 Fe1 Mn1 Ni1 Ti0.1,,POWDER,other,,7.69,7.9,378.0,C,25.0,1194.0,,,20.1 ,,,,,,10.1016/j.vacuum.2019.04.043,2019,Microstructure and mechanical properties of FeCoCrNiMnTi0.1C0.1 high-entropy alloy produced by mechanical alloying and vacuum hot pressing sintering
247,Co1 Cr1 Fe1 Ni1,FCC,,FCC,,,8.2,,,,,,,,,225,,,,10.1016/j.intermet.2012.03.005,2012,Effects of Al addition on the microstructure and mechanical property of AlxCoCrFeNi high-entropy alloys
247,Al0.5 Co1 Cr1 Fe1 Ni1,,,other,,,7.6,250.0,,,,,,,,208,,,,10.1016/j.intermet.2012.03.005,2012,Effects of Al addition on the microstructure and mechanical property of AlxCoCrFeNi high-entropy alloys
247,Al1 Co1 Cr1 Fe1 Ni1,BCC,,BCC,,,7.1,500.0,,,,,,,,194,,,,10.1016/j.intermet.2012.03.005,2012,Effects of Al addition on the microstructure and mechanical property of AlxCoCrFeNi high-entropy alloys
247,Al1 Co0.5 Cr0.5 Fe0.5 Ni0.5,BCC,,BCC,,,6.4,733.0,,,,,,,,173,,,,10.1016/j.intermet.2012.03.005,2012,Effects of Al addition on the microstructure and mechanical property of AlxCoCrFeNi high-entropy alloys
248,Al0.5 Co1 Fe1 Ni1 Ti0.5,FCC,,FCC,,,7.3,733.0,,,,,,,,178,,,,10.1016/j.msea.2013.12.096,2014,"Effect of Cr addition on the alloying behavior, microstructure and mechanical properties of twinned CoFeNiAl0.5Ti0.5 alloy"
248,Al0.5 Co1 Cr1 Fe1 Ni1 Ti0.5,,,other,,,7.3,640.0,,,,,,,,198,,,,10.1016/j.msea.2013.12.096,2014,"Effect of Cr addition on the alloying behavior, microstructure and mechanical properties of twinned CoFeNiAl0.5Ti0.5 alloy"
249,Al0.5 Co1 Cr1 Fe1 Mn1 Ni1,,,other,,,7.6,,,,,,,,,206,,,,10.4028/www.scientific.net/MSF.846.13,2016,Effect of Ta Addition on Microstructure and Hardness of FeCrNiMnCoTasubx/sub and Alsub0.5/subFeCrNiMnCoTasubx/sub High-Entropy Alloys
249,Al0.5 Co1 Cr1 Fe1 Mn1 Ni1 Ta0.2,,,other,,,7.9,385.0,,,,,,,,205,,,,10.4028/www.scientific.net/MSF.846.13,2016,Effect of Ta Addition on Microstructure and Hardness of FeCrNiMnCoTasubx/sub and Alsub0.5/subFeCrNiMnCoTasubx/sub High-Entropy Alloys
249,Al0.5 Co1 Cr1 Fe1 Mn1 Ni1 Ta0.4,,,other,,,8.2,486.0,,,,,,,,204,,,,10.4028/www.scientific.net/MSF.846.13,2016,Effect of Ta Addition on Microstructure and Hardness of FeCrNiMnCoTasubx/sub and Alsub0.5/subFeCrNiMnCoTasubx/sub High-Entropy Alloys
249,Al0.55 Co1 Cr1 Fe1 Mn1 Ni1 Ta0.6,,,other,,,8.4,570.0,,,,,,,,203,,,,10.4028/www.scientific.net/MSF.846.13,2016,Effect of Ta Addition on Microstructure and Hardness of FeCrNiMnCoTasubx/sub and Alsub0.5/subFeCrNiMnCoTasubx/sub High-Entropy Alloys
249,Co1 Cr1 Fe1 Mn1 Ni1,,,other,,,8.1,,,,,,,,,219,,,,10.4028/www.scientific.net/MSF.846.13,2016,Effect of Ta Addition on Microstructure and Hardness of FeCrNiMnCoTasubx/sub and Alsub0.5/subFeCrNiMnCoTasubx/sub High-Entropy Alloys
249,Co1 Cr1 Fe1 Mn1 Ni1 Ta0.2,,,other,,,8.4,200.0,,,,,,,,218,,,,10.4028/www.scientific.net/MSF.846.13,2016,Effect of Ta Addition on Microstructure and Hardness of FeCrNiMnCoTasubx/sub and Alsub0.5/subFeCrNiMnCoTasubx/sub High-Entropy Alloys
249,Co1 Cr1 Fe1 Mn1 Ni1 Ta0.4,,,other,,,8.7,290.0,,,,,,,,217,,,,10.4028/www.scientific.net/MSF.846.13,2016,Effect of Ta Addition on Microstructure and Hardness of FeCrNiMnCoTasubx/sub and Alsub0.5/subFeCrNiMnCoTasubx/sub High-Entropy Alloys
249,Co1 Cr1 Fe1 Mn1 Ni1 Ta0.6,,,other,,,9.0,345.0,,,,,,,,216,,,,10.4028/www.scientific.net/MSF.846.13,2016,Effect of Ta Addition on Microstructure and Hardness of FeCrNiMnCoTasubx/sub and Alsub0.5/subFeCrNiMnCoTasubx/sub High-Entropy Alloys
250,Al0.3 Co1 Cr1 Fe1 Ni1,FCC,,FCC,,,7.8,160.0,,,,,,,,214,,,,10.1016/j.jallcom.2010.02.032,2010,The effects of secondary elemental Mo or Ti addition in Al0.3CoCrFeNi high-entropy alloy on age hardening at 700°C
250,Al0.3 Co1 Cr1 Fe1 Mo0.1 Ni1,FCC,,FCC,,,7.9,200.0,,,,,,,,217,,,,10.1016/j.jallcom.2010.02.032,2010,The effects of secondary elemental Mo or Ti addition in Al0.3CoCrFeNi high-entropy alloy on age hardening at 700°C
246,Al0.143 Cr0.343 Fe1 Mn0.8 Ni0.571,FCC,CAST,FCC,,,7.6,,T,25.0,280.0,556.0,48.0,48.2,,206,,,,10.1016/j.msea.2019.05.056,2019,Effect of Al content and cold rolling on the microstructure and mechanical properties of Al5Cr12Fe35Mn28Ni20 high-entropy alloy
246,Al0.286 Cr0.343 Fe1 Mn0.657 Ni0.571,FCC,WROUGHT,FCC,,,7.4,,T,25.0,320.0,625.0,42.2,42.45,,200,,,,10.1016/j.msea.2019.05.056,2019,Effect of Al content and cold rolling on the microstructure and mechanical properties of Al5Cr12Fe35Mn28Ni20 high-entropy alloy
246,Al0.143 Cr0.343 Fe1 Mn0.8 Ni0.571,FCC,CAST,FCC,,,7.6,,T,25.0,1253.0,1392.0,6.78,8.2,,206,,,,10.1016/j.msea.2019.05.056,2019,Effect of Al content and cold rolling on the microstructure and mechanical properties of Al5Cr12Fe35Mn28Ni20 high-entropy alloy
246,Al0.286 Cr0.343 Fe1 Mn0.657 Ni0.571,FCC,WROUGHT,FCC,,,7.4,,T,25.0,1400.0,1500.0,5.83,7.85,,200,,,,10.1016/j.msea.2019.05.056,2019,Effect of Al content and cold rolling on the microstructure and mechanical properties of Al5Cr12Fe35Mn28Ni20 high-entropy alloy
251,Co1 Cu1 Fe1 Mn1 Ni1,FCC,CAST,FCC,,,8.4,,,800.0,,,,,,190,,,,10.1016/j.msea.2019.04.096,2019,Establishing processing-microstructure-property paradigm in complex concentrated equiatomic CoCuFeMnNi alloy
251,Co1 Cu1 Fe1 Mn1 Ni1,FCC,CAST,FCC,,,8.4,,,900.0,,,,,,190,,,,10.1016/j.msea.2019.04.096,2019,Establishing processing-microstructure-property paradigm in complex concentrated equiatomic CoCuFeMnNi alloy
251,Co1 Cu1 Fe1 Mn1 Ni1,FCC,CAST,FCC,,,8.4,,,100.0,,,,,,190,,,,10.1016/j.msea.2019.04.096,2019,Establishing processing-microstructure-property paradigm in complex concentrated equiatomic CoCuFeMnNi alloy
252,Co1 Cr1 Fe1 Mo0.15 Ni1,FCC,CAST,FCC,,,8.3,,T,25.0,489.0,895.0,,53.6 ,,229,,,,10.1016/j.msea.2019.05.078,2019,Altered microstructural evolution and mechanical properties of CoCrFeNiMo0.15 high-entropy alloy by cryogenic rolling
252,Co1 Cr1 Fe1 Mo0.15 Ni1,,WROUGHT,other,,,8.3,,T,25.0,873.0,,,23.4 ,,229,,,,10.1016/j.msea.2019.05.078,2019,Altered microstructural evolution and mechanical properties of CoCrFeNiMo0.15 high-entropy alloy by cryogenic rolling
252,Co1 Cr1 Fe1 Mo0.15 Ni1,,WROUGHT,other,,,8.3,,T,25.0,952.0,1122.0,,14.2 ,,229,,,,10.1016/j.msea.2019.05.078,2019,Altered microstructural evolution and mechanical properties of CoCrFeNiMo0.15 high-entropy alloy by cryogenic rolling
252,Co1 Cr1 Fe1 Mo0.15 Ni1,FCC,WROUGHT,FCC,,,8.3,,T,25.0,1136.0,1245.0,,8.7 ,,229,,,,10.1016/j.msea.2019.05.078,2019,Altered microstructural evolution and mechanical properties of CoCrFeNiMo0.15 high-entropy alloy by cryogenic rolling
252,Co1 Cr1 Fe1 Mo0.15 Ni1,FCC,WROUGHT,FCC,,,8.3,,T,25.0,1301.0,1493.0,,7.2 ,,229,,,,10.1016/j.msea.2019.05.078,2019,Altered microstructural evolution and mechanical properties of CoCrFeNiMo0.15 high-entropy alloy by cryogenic rolling
252,Co1 Cr1 Fe1 Mo0.15 Ni1,,WROUGHT,other,,,8.3,,T,25.0,1311.0,1421.0,,5.9 ,,229,,,,10.1016/j.msea.2019.05.078,2019,Altered microstructural evolution and mechanical properties of CoCrFeNiMo0.15 high-entropy alloy by cryogenic rolling
252,Co1 Cr1 Fe1 Mo0.15 Ni1,,WROUGHT,other,,,8.3,,T,25.0,1273.0,1458.0,,5.5 ,,229,,,,10.1016/j.msea.2019.05.078,2019,Altered microstructural evolution and mechanical properties of CoCrFeNiMo0.15 high-entropy alloy by cryogenic rolling
253,Co0.139 Cr0.446 Cu0.99 Ni1 Si0.277,,WROUGHT,other,,,8.0,142.5,T,25.0,777.0,810.0,3.4,,,174,,,,10.1016/j.msea.2019.05.003,2019,Microstructure and properties of a Cu–Ni–Si–Co–Cr alloy with high strength and high conductivity
253,Co0.139 Cr0.446 Cu0.99 Ni1 Si0.277,,WROUGHT,other,,,8.0,147.4,,,,,,,,174,,,,10.1016/j.msea.2019.05.003,2019,Microstructure and properties of a Cu–Ni–Si–Co–Cr alloy with high strength and high conductivity
253,Co0.139 Cr0.446 Cu0.99 Ni1 Si0.277,,WROUGHT,other,,,8.0,155.2,,,,,,,,174,,,,10.1016/j.msea.2019.05.003,2019,Microstructure and properties of a Cu–Ni–Si–Co–Cr alloy with high strength and high conductivity
254,Al1 Co1 Cr0.091 Nb0.727 W0.212,,CAST,other,,,7.4,1084.0,,25.0,,,,,,154,,,,10.1038/s41467-019-10533-1,2019,Materials informatics for the screening of multi-principal elements and high-entropy alloys
254,Co1 Cr0.917 Ni1 Ta0.5 Ti0.75,,CAST,other,,,8.7,1011.0,,25.0,,,,,,203,,,,10.1038/s41467-019-10533-1,2019,Materials informatics for the screening of multi-principal elements and high-entropy alloys
254,Al0.947 Co0.158 Mo1 Ni0.289 W0.237,,CAST,other,,,8.1,725.0,,25.0,,,,,,222,,,,10.1038/s41467-019-10533-1,2019,Materials informatics for the screening of multi-principal elements and high-entropy alloys
254,Co0.043 Nb0.638 Ni1 Ta0.255 Ti0.191,,CAST,other,,,9.3,815.0,,25.0,,,,,,162,,,,10.1038/s41467-019-10533-1,2019,Materials informatics for the screening of multi-principal elements and high-entropy alloys
254,Co0.273 Cr0.477 Nb0.477 Ni0.045 Ti1,,CAST,other,,,6.5,422.0,,25.0,,,,,,161,,,,10.1038/s41467-019-10533-1,2019,Materials informatics for the screening of multi-principal elements and high-entropy alloys
254,Co1 Cr0.487 Nb0.231 Ta0.026 Ti0.821,,CAST,other,,,7.2,856.0,,25.0,,,,,,183,,,,10.1038/s41467-019-10533-1,2019,Materials informatics for the screening of multi-principal elements and high-entropy alloys
254,Co0.564 Nb0.795 Ta0.103 Ti1 W0.103,,CAST,other,,,7.8,277.0,,25.0,,,,,,148,,,,10.1038/s41467-019-10533-1,2019,Materials informatics for the screening of multi-principal elements and high-entropy alloys
255,Al1 Co1 Cu1 Fe1 Ni0.5,,CAST,other,,,7.3,430.9,C,25.0,929.0,,13.7,,,160,,,,10.1016/j.jmst.2018.12.014,2019,Composition and phase structure dependence of mechanical and magnetic properties for AlCoCuFeNi  high entropy alloys
255,Al1 Co1 Cu1 Fe1 Ni0.8,,CAST,other,,,7.4,420.0,C,25.0,1021.0,,12.3,,,163,,,,10.1016/j.jmst.2018.12.014,2019,Composition and phase structure dependence of mechanical and magnetic properties for AlCoCuFeNi  high entropy alloys
255,Al1 Co1 Cu1 Fe1 Ni1,,CAST,other,,,7.5,391.4,C,25.0,994.0,,24.5,,,164,,,,10.1016/j.jmst.2018.12.014,2019,Composition and phase structure dependence of mechanical and magnetic properties for AlCoCuFeNi  high entropy alloys
255,Al0.667 Co0.667 Cu0.667 Fe0.667 Ni1,,CAST,other,,,7.6,323.8,C,25.0,680.0,,35.9,,,167,,,,10.1016/j.jmst.2018.12.014,2019,Composition and phase structure dependence of mechanical and magnetic properties for AlCoCuFeNi  high entropy alloys
255,Al0.5 Co0.5 Cu0.5 Fe0.5 Ni1,,CAST,other,,,7.7,299.2,C,25.0,544.0,,,,,170,,,,10.1016/j.jmst.2018.12.014,2019,Composition and phase structure dependence of mechanical and magnetic properties for AlCoCuFeNi  high entropy alloys
255,Al0.333 Co0.333 Cu0.333 Fe0.333 Ni1,FCC,CAST,FCC,,,7.9,279.6,C,25.0,268.0,,,,,174,,,,10.1016/j.jmst.2018.12.014,2019,Composition and phase structure dependence of mechanical and magnetic properties for AlCoCuFeNi  high entropy alloys
101,Al0.5 Cr1 Fe1 Mn1 Ni1,,CAST,other,,,7.3,353.0,C,25.0,1091.0,,50.0,,,205,,,,10.1016/j.msea.2019.04.104,2019,The microstructure and mechanical properties of novel Al-Cr-Fe-Mn-Ni high-entropy alloys with trimodal distributions of coherent B2 precipitates
101,Al0.6 Cr1 Fe1 Mn1 Ni1,,CAST,other,,,7.2,361.0,C,25.0,1130.0,,53.0,,,202,,,,10.1016/j.msea.2019.04.104,2019,The microstructure and mechanical properties of novel Al-Cr-Fe-Mn-Ni high-entropy alloys with trimodal distributions of coherent B2 precipitates