IDENTIFIER: Reference ID,FORMULA,PROPERTY: Microstructure,PROPERTY: Processing method,PROPERTY: BCC/FCC/other,PROPERTY: grain size ($\mu$m),PROPERTY: Exp. Density (g/cm$^3$),PROPERTY: Calculated Density (g/cm$^3$),PROPERTY: HV,PROPERTY: Type of test,PROPERTY: Test temperature ($^\circ$C),PROPERTY: YS (MPa),PROPERTY: UTS (MPa),PROPERTY: Elongation (%),PROPERTY: Elongation plastic (%),PROPERTY: Exp. Young modulus (GPa),PROPERTY: Calculated Young modulus (GPa),PROPERTY: O content (wppm),PROPERTY: N content (wppm),PROPERTY: C content (wppm),REFERENCE: doi,REFERENCE: year,REFERENCE: title
226,Al1 Co1 Cr1 Fe1 Ni1,,,other,,,6.7,,C,25.0,1300.0,,24.2,,,,,,,10.1016/j.jallcom.2018.01.247,2018,Studies on the microstructure and properties of AlxCoCrFeNiTi1-x high entropy alloys
226,Al0.8 Co1 Cr1 Fe1 Ni1 Ti0.2,,,other,,,6.8,,C,25.0,968.0,,30.1,,,,,,,10.1016/j.jallcom.2018.01.247,2018,Studies on the microstructure and properties of AlxCoCrFeNiTi1-x high entropy alloys
226,Al0.5 Co1 Cr1 Fe1 Ni1 Ti0.5,,,other,,,6.9,,C,25.0,1100.0,,27.5,,,,,,,10.1016/j.jallcom.2018.01.247,2018,Studies on the microstructure and properties of AlxCoCrFeNiTi1-x high entropy alloys
225,Al1 Co1 Cu1 Fe1 Ni1,,,other,,,7.0,,C,25.0,1060.0,,19.1,,,,,,,10.1016/j.matdes.2016.12.036,2017,"Microstructure, mechanical and corrosion behaviors of AlCoCuFeNi-(Cr,Ti) high entropy alloys"
225,Al1 Co1 Cr1 Cu1 Fe1 Ni1,,,other,,,7.1,,C,25.0,1285.0,,24.6,,,,,,,10.1016/j.matdes.2016.12.036,2017,"Microstructure, mechanical and corrosion behaviors of AlCoCuFeNi-(Cr,Ti) high entropy alloys"
225,Al1 Co1 Cu1 Fe1 Ni1 Ti1,,,other,,,6.5,,C,25.0,1612.0,,12.8,,,,,,,10.1016/j.matdes.2016.12.036,2017,"Microstructure, mechanical and corrosion behaviors of AlCoCuFeNi-(Cr,Ti) high entropy alloys"
225,Al1 Co1 Cr1 Cu1 Fe1 Ni1 Ti1,,,other,,,6.6,,C,25.0,1523.0,,8.1,,,,,,,10.1016/j.matdes.2016.12.036,2017,"Microstructure, mechanical and corrosion behaviors of AlCoCuFeNi-(Cr,Ti) high entropy alloys"
227,Al1 Cr1 Fe1 Ni1,,,other,,,6.3,,C,25.0,1271.0,,14.0,,,,,,,10.1016/j.jallcom.2018.07.346,2018,Effect of Co content on the mechanical properties of A2 and B2 phases in AlCoxCrFeNi high-entropy alloys
227,Al1 Co0.25 Cr1 Fe1 Ni1,,,other,,,6.4,,C,25.0,1363.0,,19.0,,,,,,,10.1016/j.jallcom.2018.07.346,2018,Effect of Co content on the mechanical properties of A2 and B2 phases in AlCoxCrFeNi high-entropy alloys
227,Al1 Co0.5 Cr1 Fe1 Ni1,,,other,,,6.5,,C,25.0,1349.0,,20.0,,,,,,,10.1016/j.jallcom.2018.07.346,2018,Effect of Co content on the mechanical properties of A2 and B2 phases in AlCoxCrFeNi high-entropy alloys
227,Al1 Co0.75 Cr1 Fe1 Ni1,,,other,,,6.6,,C,25.0,1331.0,,20.0,,,,,,,10.1016/j.jallcom.2018.07.346,2018,Effect of Co content on the mechanical properties of A2 and B2 phases in AlCoxCrFeNi high-entropy alloys
227,Al1 Co1 Cr1 Fe1 Ni1,,,other,,,6.7,,C,25.0,1313.0,,19.0,,,,,,,10.1016/j.jallcom.2018.07.346,2018,Effect of Co content on the mechanical properties of A2 and B2 phases in AlCoxCrFeNi high-entropy alloys
228,Co1 Cr1 Fe1 Mn1,,,other,,,7.8,,C,25.0,338.0,,4.3,,,,,,,10.1016/j.intermet.2016.09.003,2016,Compositional dependence of phase formation and mechanical properties in three CoCrFeNi-(Mn/Al/Cu) high entropy alloys
229,Al1 Co1 Cr1 Fe1 Ni1,FCC+BCC,POWDER,other,,,6.7,,,,,,,,,,,,,10.1016/j.jallcom.2019.06.301,2019,Effect of heat treatment on the phase evolution and mechanical properties of atomized AlCoCrFeNi high-entropy alloy powders
230,Hf1 Nb1 Ta1 Ti1 W1 Zr1,BCC+Laves,CAST,other,29.4,,11.2,,C,25.0,1550.0,,26.3,,,,,,,10.1016/j.jallcom.2019.06.138,2019,Microstructures and mechanical properties of HfNbTaTiZrW and HfNbTaTiZrMoW refractory high-entropy alloys
230,Hf1 Mo1 Nb1 Ta1 Ti1 W1 Zr1,BCC+Laves,CAST,other,31.7,,11.1,,C,25.0,1637.0,,15.5,,,,,,,10.1016/j.jallcom.2019.06.138,2019,Microstructures and mechanical properties of HfNbTaTiZrW and HfNbTaTiZrMoW refractory high-entropy alloys
230,Hf1 Nb1 Ta1 Ti1 W1 Zr1,BCC+Laves,CAST,other,,,11.2,,C,800.0,577.0,,35.0,,,,,,,10.1016/j.jallcom.2019.06.138,2019,Microstructures and mechanical properties of HfNbTaTiZrW and HfNbTaTiZrMoW refractory high-entropy alloys
230,Hf1 Mo1 Nb1 Ta1 Ti1 W1 Zr1,BCC+Laves,CAST,other,,,11.1,,C,800.0,1065.0,,35.0,,,,,,,10.1016/j.jallcom.2019.06.138,2019,Microstructures and mechanical properties of HfNbTaTiZrW and HfNbTaTiZrMoW refractory high-entropy alloys
230,Hf1 Nb1 Ta1 Ti1 W1 Zr1,BCC+Laves,CAST,other,,,11.2,,C,1000.0,409.0,,35.0,,,,,,,10.1016/j.jallcom.2019.06.138,2019,Microstructures and mechanical properties of HfNbTaTiZrW and HfNbTaTiZrMoW refractory high-entropy alloys
230,Hf1 Mo1 Nb1 Ta1 Ti1 W1 Zr1,BCC+Laves,CAST,other,,,11.1,,C,1000.0,736.0,,35.0,,,,,,,10.1016/j.jallcom.2019.06.138,2019,Microstructures and mechanical properties of HfNbTaTiZrW and HfNbTaTiZrMoW refractory high-entropy alloys
230,Hf1 Nb1 Ta1 Ti1 W1 Zr1,BCC+Laves,CAST,other,,,11.2,,C,1200.0,345.0,,35.0,,,,,,,10.1016/j.jallcom.2019.06.138,2019,Microstructures and mechanical properties of HfNbTaTiZrW and HfNbTaTiZrMoW refractory high-entropy alloys
230,Hf1 Mo1 Nb1 Ta1 Ti1 W1 Zr1,BCC+Laves,CAST,other,,,11.1,,C,1200.0,703.0,,35.0,,,,,,,10.1016/j.jallcom.2019.06.138,2019,Microstructures and mechanical properties of HfNbTaTiZrW and HfNbTaTiZrMoW refractory high-entropy alloys
231,Nb1 Ti1 Zr1,BCC,CAST,BCC,,,6.5,372.0,C,25.0,1223.0,,48.0,,,94,,,,10.1007/s12598-019-01310-6,2019,Microstructure and mechanical properties of NbZrTi and NbHfZrTi alloys
231,Hf1 Nb1 Ti1 Zr1,BCC,CAST,BCC,,,8.4,351.0,C,25.0,1000.0,,52.0,,,89,,,,10.1007/s12598-019-01310-6,2019,Microstructure and mechanical properties of NbZrTi and NbHfZrTi alloys
231,Nb1 Ti1 Zr1,BCC,ANNEAL,BCC,300.0,,6.5,,,,,,,,,94,,,,10.1007/s12598-019-01310-6,2019,Microstructure and mechanical properties of NbZrTi and NbHfZrTi alloys
231,Hf1 Nb1 Ti1 Zr1,BCC,ANNEAL,BCC,50.0,,8.4,,,,,,,,,89,,,,10.1007/s12598-019-01310-6,2019,Microstructure and mechanical properties of NbZrTi and NbHfZrTi alloys
231,Nb1 Ti1 Zr1,BCC,CAST,BCC,,,6.5,,C,800.0,462.0,,51.0,,,94,,,,10.1007/s12598-019-01310-6,2019,Microstructure and mechanical properties of NbZrTi and NbHfZrTi alloys
231,Hf1 Nb1 Ti1 Zr1,BCC,CAST,BCC,,,8.4,,C,800.0,303.0,,51.0,,,89,,,,10.1007/s12598-019-01310-6,2019,Microstructure and mechanical properties of NbZrTi and NbHfZrTi alloys
231,Nb1 Ti1 Zr1,BCC,CAST,BCC,,,6.5,,C,1000.0,218.0,,51.0,,,94,,,,10.1007/s12598-019-01310-6,2019,Microstructure and mechanical properties of NbZrTi and NbHfZrTi alloys
231,Hf1 Nb1 Ti1 Zr1,BCC,CAST,BCC,,,8.4,,C,1000.0,154.0,,51.0,,,89,,,,10.1007/s12598-019-01310-6,2019,Microstructure and mechanical properties of NbZrTi and NbHfZrTi alloys
232,Co1 Cr1 Fe1 Ni1,FCC,CAST,FCC,,,8.2,168.9,C,25.0,163.0,,80.0,,,226,,,,10.1016/j.intermet.2019.106550,2019,"Microstructure, mechanical properties and corrosion resistance of CoCrFeNiW(x = 0, 0.2, 0.5) high entropy alloys"
232,Co1 Cr1 Fe1 Ni1 W0.2,FCC,CAST,FCC,,,8.9,244.0,C,25.0,335.0,,52.0,,,238,,,,10.1016/j.intermet.2019.106550,2019,"Microstructure, mechanical properties and corrosion resistance of CoCrFeNiW(x = 0, 0.2, 0.5) high entropy alloys"
232,Co1 Cr1 Fe1 Ni1 W0.5,FCC+Sec.,CAST,other,,,9.8,357.9,C,25.0,556.0,,35.6,,,,,,,10.1016/j.intermet.2019.106550,2019,"Microstructure, mechanical properties and corrosion resistance of CoCrFeNiW(x = 0, 0.2, 0.5) high entropy alloys"
233,Cr1 Fe1 Mo1 Nb1 V1,BCC+Laves,CAST,other,,,8.1,826.0,C,25.0,2663.0,,2.7,,,,,,,10.1007/s40195-019-00935-x,2019,"Microstructure, Mechanical Properties, and Corrosion Behavior of MoNbFeCrV, MoNbFeCrTi, and MoNbFeVTi High-Entropy Alloys"
233,Cr1 Fe1 Mo1 Nb1 Ti1,BCC+Laves,CAST,other,,,7.6,792.0,C,25.0,1647.0,,0.9,,,,,,,10.1007/s40195-019-00935-x,2019,"Microstructure, Mechanical Properties, and Corrosion Behavior of MoNbFeCrV, MoNbFeCrTi, and MoNbFeVTi High-Entropy Alloys"
233,Fe1 Mo1 Nb1 Ti1 V1,BCC+B2,CAST,other,,,7.4,699.0,C,25.0,1707.0,,1.7,,,,,,,10.1007/s40195-019-00935-x,2019,"Microstructure, Mechanical Properties, and Corrosion Behavior of MoNbFeCrV, MoNbFeCrTi, and MoNbFeVTi High-Entropy Alloys"
234,Al0.15 Cr0.5 Cu0.25 Fe0.5 Ni1,FCC,WROUGHT,FCC,,,7.8,107.0,T,25.0,62.0,169.0,98.0,,16.6,200,,,,10.1016/j.matchar.2019.109792,2019,Precipitation behavior and its impact on mechanical properties in an aged carbon-containing Al0.3Cu0.5CrFeNi2 high-entropy alloy
234,Al0.15 Cr0.5 Cu0.25 Fe0.5 Ni1,FCC+L12,WROUGHT,other,,,7.8,209.0,T,25.0,350.0,642.0,73.0,,47.0,,,,,10.1016/j.matchar.2019.109792,2019,Precipitation behavior and its impact on mechanical properties in an aged carbon-containing Al0.3Cu0.5CrFeNi2 high-entropy alloy
234,Al0.15 Cr0.5 Cu0.25 Fe0.5 Ni1,FCC+L12+Sec.,WROUGHT,other,,,7.8,321.0,T,25.0,535.0,904.0,39.0,,35.2,,,,,10.1016/j.matchar.2019.109792,2019,Precipitation behavior and its impact on mechanical properties in an aged carbon-containing Al0.3Cu0.5CrFeNi2 high-entropy alloy
234,Al0.15 Cr0.5 Cu0.25 Fe0.5 Ni1,FCC+L12+Sec.,WROUGHT,other,,,7.8,159.0,T,25.0,255.0,584.0,88.0,,51.4,,,,,10.1016/j.matchar.2019.109792,2019,Precipitation behavior and its impact on mechanical properties in an aged carbon-containing Al0.3Cu0.5CrFeNi2 high-entropy alloy
235,Hf1 Nb1 Ta1 Ti1 Zr1,BCC,WROUGHT,BCC,60.0,,9.9,,,20.0,,,,,88.9,107,,,,10.1016/j.jallcom.2019.05.322,2019,Temperature dependence of elastic moduli in a refractory HfNbTaTiZr high-entropy alloy
235,Hf1 Nb1 Ta1 Ti1 Zr1,BCC,WROUGHT,BCC,,,9.9,,,40.0,,,,,88.6,107,,,,10.1016/j.jallcom.2019.05.322,2019,Temperature dependence of elastic moduli in a refractory HfNbTaTiZr high-entropy alloy
235,Hf1 Nb1 Ta1 Ti1 Zr1,BCC,WROUGHT,BCC,,,9.9,,,60.0,,,,,88.4,107,,,,10.1016/j.jallcom.2019.05.322,2019,Temperature dependence of elastic moduli in a refractory HfNbTaTiZr high-entropy alloy
235,Hf1 Nb1 Ta1 Ti1 Zr1,BCC,WROUGHT,BCC,,,9.9,,,80.0,,,,,88.1,107,,,,10.1016/j.jallcom.2019.05.322,2019,Temperature dependence of elastic moduli in a refractory HfNbTaTiZr high-entropy alloy
235,Hf1 Nb1 Ta1 Ti1 Zr1,BCC,WROUGHT,BCC,,,9.9,,,100.0,,,,,87.9,107,,,,10.1016/j.jallcom.2019.05.322,2019,Temperature dependence of elastic moduli in a refractory HfNbTaTiZr high-entropy alloy
235,Hf1 Nb1 Ta1 Ti1 Zr1,BCC,WROUGHT,BCC,,,9.9,,,120.0,,,,,87.7,107,,,,10.1016/j.jallcom.2019.05.322,2019,Temperature dependence of elastic moduli in a refractory HfNbTaTiZr high-entropy alloy
235,Hf1 Nb1 Ta1 Ti1 Zr1,BCC,WROUGHT,BCC,,,9.9,,,140.0,,,,,87.5,107,,,,10.1016/j.jallcom.2019.05.322,2019,Temperature dependence of elastic moduli in a refractory HfNbTaTiZr high-entropy alloy
235,Hf1 Nb1 Ta1 Ti1 Zr1,BCC,WROUGHT,BCC,,,9.9,,,160.0,,,,,87.3,107,,,,10.1016/j.jallcom.2019.05.322,2019,Temperature dependence of elastic moduli in a refractory HfNbTaTiZr high-entropy alloy
235,Hf1 Nb1 Ta1 Ti1 Zr1,BCC,WROUGHT,BCC,,,9.9,,,180.0,,,,,87.1,107,,,,10.1016/j.jallcom.2019.05.322,2019,Temperature dependence of elastic moduli in a refractory HfNbTaTiZr high-entropy alloy
235,Hf1 Nb1 Ta1 Ti1 Zr1,BCC,WROUGHT,BCC,,,9.9,,,200.0,,,,,86.9,107,,,,10.1016/j.jallcom.2019.05.322,2019,Temperature dependence of elastic moduli in a refractory HfNbTaTiZr high-entropy alloy
235,Hf1 Nb1 Ta1 Ti1 Zr1,BCC,WROUGHT,BCC,,,9.9,,,220.0,,,,,86.7,107,,,,10.1016/j.jallcom.2019.05.322,2019,Temperature dependence of elastic moduli in a refractory HfNbTaTiZr high-entropy alloy
235,Hf1 Nb1 Ta1 Ti1 Zr1,BCC,WROUGHT,BCC,,,9.9,,,240.0,,,,,86.5,107,,,,10.1016/j.jallcom.2019.05.322,2019,Temperature dependence of elastic moduli in a refractory HfNbTaTiZr high-entropy alloy
235,Hf1 Nb1 Ta1 Ti1 Zr1,BCC,WROUGHT,BCC,,,9.9,,,260.0,,,,,86.3,107,,,,10.1016/j.jallcom.2019.05.322,2019,Temperature dependence of elastic moduli in a refractory HfNbTaTiZr high-entropy alloy
235,Hf1 Nb1 Ta1 Ti1 Zr1,BCC,WROUGHT,BCC,,,9.9,,,280.0,,,,,86.1,107,,,,10.1016/j.jallcom.2019.05.322,2019,Temperature dependence of elastic moduli in a refractory HfNbTaTiZr high-entropy alloy
235,Hf1 Nb1 Ta1 Ti1 Zr1,BCC,WROUGHT,BCC,,,9.9,,,300.0,,,,,85.8,107,,,,10.1016/j.jallcom.2019.05.322,2019,Temperature dependence of elastic moduli in a refractory HfNbTaTiZr high-entropy alloy
235,Hf1 Nb1 Ta1 Ti1 Zr1,BCC,WROUGHT,BCC,,,9.9,,,320.0,,,,,85.5,107,,,,10.1016/j.jallcom.2019.05.322,2019,Temperature dependence of elastic moduli in a refractory HfNbTaTiZr high-entropy alloy
235,Hf1 Nb1 Ta1 Ti1 Zr1,BCC,WROUGHT,BCC,,,9.9,,,340.0,,,,,85.2,107,,,,10.1016/j.jallcom.2019.05.322,2019,Temperature dependence of elastic moduli in a refractory HfNbTaTiZr high-entropy alloy
235,Hf1 Nb1 Ta1 Ti1 Zr1,BCC,WROUGHT,BCC,,,9.9,,,360.0,,,,,84.9,107,,,,10.1016/j.jallcom.2019.05.322,2019,Temperature dependence of elastic moduli in a refractory HfNbTaTiZr high-entropy alloy
235,Hf1 Nb1 Ta1 Ti1 Zr1,BCC,WROUGHT,BCC,,,9.9,,,380.0,,,,,84.5,107,,,,10.1016/j.jallcom.2019.05.322,2019,Temperature dependence of elastic moduli in a refractory HfNbTaTiZr high-entropy alloy
235,Hf1 Nb1 Ta1 Ti1 Zr1,BCC,WROUGHT,BCC,,,9.9,,,400.0,,,,,84.2,107,,,,10.1016/j.jallcom.2019.05.322,2019,Temperature dependence of elastic moduli in a refractory HfNbTaTiZr high-entropy alloy
235,Hf1 Nb1 Ta1 Ti1 Zr1,BCC,WROUGHT,BCC,,,9.9,,,420.0,,,,,83.8,107,,,,10.1016/j.jallcom.2019.05.322,2019,Temperature dependence of elastic moduli in a refractory HfNbTaTiZr high-entropy alloy
235,Hf1 Nb1 Ta1 Ti1 Zr1,BCC,WROUGHT,BCC,,,9.9,,,440.0,,,,,83.5,107,,,,10.1016/j.jallcom.2019.05.322,2019,Temperature dependence of elastic moduli in a refractory HfNbTaTiZr high-entropy alloy
235,Hf1 Nb1 Ta1 Ti1 Zr1,BCC,WROUGHT,BCC,,,9.9,,,460.0,,,,,83.1,107,,,,10.1016/j.jallcom.2019.05.322,2019,Temperature dependence of elastic moduli in a refractory HfNbTaTiZr high-entropy alloy
235,Hf1 Nb1 Ta1 Ti1 Zr1,BCC,WROUGHT,BCC,,,9.9,,,480.0,,,,,82.7,107,,,,10.1016/j.jallcom.2019.05.322,2019,Temperature dependence of elastic moduli in a refractory HfNbTaTiZr high-entropy alloy
235,Hf1 Nb1 Ta1 Ti1 Zr1,BCC,WROUGHT,BCC,,,9.9,,,500.0,,,,,82.3,107,,,,10.1016/j.jallcom.2019.05.322,2019,Temperature dependence of elastic moduli in a refractory HfNbTaTiZr high-entropy alloy
235,Hf1 Nb1 Ta1 Ti1 Zr1,BCC,WROUGHT,BCC,,,9.9,,,520.0,,,,,81.9,107,,,,10.1016/j.jallcom.2019.05.322,2019,Temperature dependence of elastic moduli in a refractory HfNbTaTiZr high-entropy alloy
235,Hf1 Nb1 Ta1 Ti1 Zr1,BCC,WROUGHT,BCC,,,9.9,,,540.0,,,,,81.6,107,,,,10.1016/j.jallcom.2019.05.322,2019,Temperature dependence of elastic moduli in a refractory HfNbTaTiZr high-entropy alloy
235,Hf1 Nb1 Ta1 Ti1 Zr1,BCC,WROUGHT,BCC,,,9.9,,,560.0,,,,,81.3,107,,,,10.1016/j.jallcom.2019.05.322,2019,Temperature dependence of elastic moduli in a refractory HfNbTaTiZr high-entropy alloy
235,Hf1 Nb1 Ta1 Ti1 Zr1,BCC,WROUGHT,BCC,,,9.9,,,580.0,,,,,81.0,107,,,,10.1016/j.jallcom.2019.05.322,2019,Temperature dependence of elastic moduli in a refractory HfNbTaTiZr high-entropy alloy
235,Hf1 Nb1 Ta1 Ti1 Zr1,BCC,WROUGHT,BCC,,,9.9,,,600.0,,,,,80.7,107,,,,10.1016/j.jallcom.2019.05.322,2019,Temperature dependence of elastic moduli in a refractory HfNbTaTiZr high-entropy alloy
235,Hf1 Nb1 Ta1 Ti1 Zr1,BCC,WROUGHT,BCC,,,9.9,,,620.0,,,,,80.4,107,,,,10.1016/j.jallcom.2019.05.322,2019,Temperature dependence of elastic moduli in a refractory HfNbTaTiZr high-entropy alloy
235,Hf1 Nb1 Ta1 Ti1 Zr1,BCC,WROUGHT,BCC,,,9.9,,,640.0,,,,,80.2,107,,,,10.1016/j.jallcom.2019.05.322,2019,Temperature dependence of elastic moduli in a refractory HfNbTaTiZr high-entropy alloy
235,Hf1 Nb1 Ta1 Ti1 Zr1,BCC,WROUGHT,BCC,,,9.9,,,660.0,,,,,80.0,107,,,,10.1016/j.jallcom.2019.05.322,2019,Temperature dependence of elastic moduli in a refractory HfNbTaTiZr high-entropy alloy
235,Hf1 Nb1 Ta1 Ti1 Zr1,BCC,WROUGHT,BCC,,,9.9,,,680.0,,,,,79.8,107,,,,10.1016/j.jallcom.2019.05.322,2019,Temperature dependence of elastic moduli in a refractory HfNbTaTiZr high-entropy alloy
235,Hf1 Nb1 Ta1 Ti1 Zr1,BCC,WROUGHT,BCC,,,9.9,,,700.0,,,,,79.6,107,,,,10.1016/j.jallcom.2019.05.322,2019,Temperature dependence of elastic moduli in a refractory HfNbTaTiZr high-entropy alloy
235,Hf1 Nb1 Ta1 Ti1 Zr1,BCC,WROUGHT,BCC,,,9.9,,,720.0,,,,,79.3,107,,,,10.1016/j.jallcom.2019.05.322,2019,Temperature dependence of elastic moduli in a refractory HfNbTaTiZr high-entropy alloy
235,Hf1 Nb1 Ta1 Ti1 Zr1,BCC,WROUGHT,BCC,,,9.9,,,740.0,,,,,79.0,107,,,,10.1016/j.jallcom.2019.05.322,2019,Temperature dependence of elastic moduli in a refractory HfNbTaTiZr high-entropy alloy
235,Hf1 Nb1 Ta1 Ti1 Zr1,BCC,WROUGHT,BCC,,,9.9,,,760.0,,,,,78.7,107,,,,10.1016/j.jallcom.2019.05.322,2019,Temperature dependence of elastic moduli in a refractory HfNbTaTiZr high-entropy alloy
235,Hf1 Nb1 Ta1 Ti1 Zr1,BCC,WROUGHT,BCC,,,9.9,,,780.0,,,,,78.4,107,,,,10.1016/j.jallcom.2019.05.322,2019,Temperature dependence of elastic moduli in a refractory HfNbTaTiZr high-entropy alloy
235,Hf1 Nb1 Ta1 Ti1 Zr1,BCC,WROUGHT,BCC,,,9.9,,,800.0,,,,,78.1,107,,,,10.1016/j.jallcom.2019.05.322,2019,Temperature dependence of elastic moduli in a refractory HfNbTaTiZr high-entropy alloy
235,Hf1 Nb1 Ta1 Ti1 Zr1,BCC,WROUGHT,BCC,,,9.9,,,820.0,,,,,77.7,107,,,,10.1016/j.jallcom.2019.05.322,2019,Temperature dependence of elastic moduli in a refractory HfNbTaTiZr high-entropy alloy
235,Hf1 Nb1 Ta1 Ti1 Zr1,BCC,WROUGHT,BCC,,,9.9,,,840.0,,,,,77.4,107,,,,10.1016/j.jallcom.2019.05.322,2019,Temperature dependence of elastic moduli in a refractory HfNbTaTiZr high-entropy alloy
237,Co1 Cr1 Fe1 Ni1 Ti0.3,FCC,WROUGHT,FCC,90.0,,7.8,263.0,T,25.0,540.0,772.0,60.0,,,214,,,,10.1016/j.msea.2019.138181,2019,"The effects of substitution of Co with Ni on microstructure, mechanical properties, and age hardening of Co1-xCrFeNi1+xTi0.3 high-entropy alloys"
237,Co1 Cr1 Fe1 Ni1 Ti0.3,FCC,WROUGHT,FCC,216.0,,7.8,185.0,,,,,,,,214,,,,10.1016/j.msea.2019.138181,2019,"The effects of substitution of Co with Ni on microstructure, mechanical properties, and age hardening of Co1-xCrFeNi1+xTi0.3 high-entropy alloys"
237,Co0.333 Cr0.667 Fe0.667 Ni1 Ti0.2,FCC,WROUGHT,FCC,263.0,,7.8,197.0,,,,,,,,213,,,,10.1016/j.msea.2019.138181,2019,"The effects of substitution of Co with Ni on microstructure, mechanical properties, and age hardening of Co1-xCrFeNi1+xTi0.3 high-entropy alloys"
237,Co0.333 Cr0.667 Fe0.667 Ni1 Ti0.2,FCC,WROUGHT,FCC,90.0,,7.8,308.0,T,25.0,586.0,875.0,46.0,,,213,,,,10.1016/j.msea.2019.138181,2019,"The effects of substitution of Co with Ni on microstructure, mechanical properties, and age hardening of Co1-xCrFeNi1+xTi0.3 high-entropy alloys"
237,Cr0.5 Fe0.5 Ni1 Ti0.15,FCC,WROUGHT,FCC,90.0,,7.8,335.0,T,25.0,672.0,982.0,37.0,,,212,,,,10.1016/j.msea.2019.138181,2019,"The effects of substitution of Co with Ni on microstructure, mechanical properties, and age hardening of Co1-xCrFeNi1+xTi0.3 high-entropy alloys"
237,Cr0.5 Fe0.5 Ni1 Ti0.15,FCC,WROUGHT,FCC,324.0,,7.8,204.0,,,,,,,,212,,,,10.1016/j.msea.2019.138181,2019,"The effects of substitution of Co with Ni on microstructure, mechanical properties, and age hardening of Co1-xCrFeNi1+xTi0.3 high-entropy alloys"
238,Nb1 Ta1 Ti1,BCC,WROUGHT,BCC,,,10.0,,C,20.0,573.0,,,,,136,100.0,5,,10.1016/j.actamat.2019.06.006,2019,Solid-solution strengthening in refractory high entropy alloys
238,Nb1 Ta1 Ti1,BCC,WROUGHT,BCC,,,10.0,,C,100.0,486.0,,,,,136,100.0,5,,10.1016/j.actamat.2019.06.006,2019,Solid-solution strengthening in refractory high entropy alloys
238,Nb1 Ta1 Ti1,BCC,WROUGHT,BCC,,,10.0,,C,200.0,378.0,,,,,136,100.0,5,,10.1016/j.actamat.2019.06.006,2019,Solid-solution strengthening in refractory high entropy alloys
238,Nb1 Ta1 Ti1,BCC,WROUGHT,BCC,,,10.0,,C,300.0,314.0,,,,,136,100.0,5,,10.1016/j.actamat.2019.06.006,2019,Solid-solution strengthening in refractory high entropy alloys
238,Nb1 Ta1 Ti1,BCC,WROUGHT,BCC,,,10.0,,C,400.0,232.0,,,,,136,100.0,5,,10.1016/j.actamat.2019.06.006,2019,Solid-solution strengthening in refractory high entropy alloys
238,Nb1 Ta1 Ti1,BCC,WROUGHT,BCC,,,10.0,,C,600.0,222.0,,,,,136,100.0,5,,10.1016/j.actamat.2019.06.006,2019,Solid-solution strengthening in refractory high entropy alloys
238,Nb1 Ta1 Ti1,BCC,WROUGHT,BCC,,,10.0,,C,800.0,210.0,,,,,136,100.0,5,,10.1016/j.actamat.2019.06.006,2019,Solid-solution strengthening in refractory high entropy alloys