IDENTIFIER: Reference ID,FORMULA,PROPERTY: Microstructure,PROPERTY: Processing method,PROPERTY: BCC/FCC/other,PROPERTY: grain size ($\mu$m),PROPERTY: Exp. Density (g/cm$^3$),PROPERTY: Computed Density (g/cm$^3$),PROPERTY: HV,PROPERTY: Type of test,PROPERTY: Test temperature ($^\circ$C),PROPERTY: YS (MPa),PROPERTY: UTS (MPa),PROPERTY: Elongation (%),PROPERTY: Elongation plastic (%),PROPERTY: Exp. Young modulus (GPa),PROPERTY: Computed Young modulus (GPa),PROPERTY: O content (wppm),PROPERTY: N content (wppm),PROPERTY: C content (wppm),REFERENCE: doi,REFERENCE: year,REFERENCE: title
101,Al0.7 Cr1 Fe1 Mn1 Ni1,,CAST,other,,,7.1,375.0,C,25.0,1170.0,,55.0,,,199,,,,10.1016/j.msea.2019.04.104,2019,The microstructure and mechanical properties of novel Al-Cr-Fe-Mn-Ni high-entropy alloys with trimodal distributions of coherent B2 precipitates
101,Al0.8 Cr1 Fe1 Mn1 Ni1,,CAST,other,,,7.0,386.0,C,25.0,1200.0,,55.0,,,197,,,,10.1016/j.msea.2019.04.104,2019,The microstructure and mechanical properties of novel Al-Cr-Fe-Mn-Ni high-entropy alloys with trimodal distributions of coherent B2 precipitates
102,Co1 Cr0.2 Fe1 Ni1 Si0.2,FCC,CAST,FCC,,,8.1,130.1,T,25.0,225.0,732.0,61.0,,,202,,,,10.1016/j.jmmm.2019.01.096,2019,A novel FeCoNiCr0.2Si0.2 high entropy alloy with an excellent balance of mechanical and soft magnetic properties
102,Co1 Cr0.2 Fe1 Ni1 Si0.2,FCC,WROUGHT,FCC,,,8.1,318.2,T,25.0,705.0,1070.0,10.0,,,202,,,,10.1016/j.jmmm.2019.01.096,2019,A novel FeCoNiCr0.2Si0.2 high entropy alloy with an excellent balance of mechanical and soft magnetic properties
102,Co1 Cr0.2 Fe1 Ni1 Si0.2,FCC,WROUGHT,FCC,,,8.1,153.8,T,25.0,320.0,920.0,60.0,,,202,,,,10.1016/j.jmmm.2019.01.096,2019,A novel FeCoNiCr0.2Si0.2 high entropy alloy with an excellent balance of mechanical and soft magnetic properties
103,Al1 Cu0.077 Fe0.077 Mg0.077 Si0.231 Zn0.077,FCC,CAST,FCC,,3.08,3.4,,C,25.0,422.0,,1.0,,88.7,77,,,,10.1038/s41598-019-43329-w,2019,"Design, Microstructure and Mechanical Properties of Cast Medium Entropy Aluminium Alloys"
103,Al1 Cu0.077 Mg0.077 Ni0.077 Si0.231 Zn0.077,FCC,CAST,FCC,,3.15,3.4,,C,25.0,534.0,,1.0,,107.8,77,,,,10.1038/s41598-019-43329-w,2019,"Design, Microstructure and Mechanical Properties of Cast Medium Entropy Aluminium Alloys"
103,Al1 Cr0.077 Cu0.077 Mg0.077 Si0.231 Zn0.077,FCC,CAST,FCC,,3.06,3.4,,C,25.0,490.0,,6.0,,78.4,81,,,,10.1038/s41598-019-43329-w,2019,"Design, Microstructure and Mechanical Properties of Cast Medium Entropy Aluminium Alloys"
103,Al1 Cu0.077 Mg0.077 Mn0.077 Si0.231 Zn0.077,FCC,CAST,FCC,,2.98,3.4,,C,25.0,622.0,,2.0,,114.1,77,,,,10.1038/s41598-019-43329-w,2019,"Design, Microstructure and Mechanical Properties of Cast Medium Entropy Aluminium Alloys"
103,Al1 Cu0.077 Mg0.077 Si0.231 Zn0.077 Zr0.077,,CAST,other,,3.06,3.3,,C,25.0,565.0,,4.0,,105.1,70,,,,10.1038/s41598-019-43329-w,2019,"Design, Microstructure and Mechanical Properties of Cast Medium Entropy Aluminium Alloys"
104,Co1 Cr1 Fe1 Mo0.2 Ni1,FCC,CAST,FCC,,,8.3,,T,25.0,400.0,780.0,53.0,,,230,,,,10.3390/e21050448,2019,Effects of Annealing on Microstructure and Mechanical Properties of Metastable Powder Metallurgy CoCrFeNiMo0.2 High Entropy Alloy
104,Co1 Cr1 Fe1 Mo0.2 Ni1,FCC,ANNEAL,FCC,,,8.3,,T,25.0,,838.0,43.0,,,230,,,,10.3390/e21050448,2019,Effects of Annealing on Microstructure and Mechanical Properties of Metastable Powder Metallurgy CoCrFeNiMo0.2 High Entropy Alloy
104,Co1 Cr1 Fe1 Mo0.2 Ni1,FCC,ANNEAL,FCC,,,8.3,,T,25.0,,899.0,31.0,,,230,,,,10.3390/e21050448,2019,Effects of Annealing on Microstructure and Mechanical Properties of Metastable Powder Metallurgy CoCrFeNiMo0.2 High Entropy Alloy
104,Co1 Cr1 Fe1 Mo0.2 Ni1,FCC,ANNEAL,FCC,,,8.3,,T,25.0,,902.0,29.0,,,230,,,,10.3390/e21050448,2019,Effects of Annealing on Microstructure and Mechanical Properties of Metastable Powder Metallurgy CoCrFeNiMo0.2 High Entropy Alloy
104,Co1 Cr1 Fe1 Mo0.2 Ni1,FCC,ANNEAL,FCC,,,8.3,,T,25.0,,811.0,52.0,,,230,,,,10.3390/e21050448,2019,Effects of Annealing on Microstructure and Mechanical Properties of Metastable Powder Metallurgy CoCrFeNiMo0.2 High Entropy Alloy
104,Co1 Cr1 Fe1 Mo0.2 Ni1,FCC,ANNEAL,FCC,,,8.3,,T,25.0,,790.0,49.0,,,230,,,,10.3390/e21050448,2019,Effects of Annealing on Microstructure and Mechanical Properties of Metastable Powder Metallurgy CoCrFeNiMo0.2 High Entropy Alloy
104,Co1 Cr1 Fe1 Mo0.2 Ni1,FCC,ANNEAL,FCC,,,8.3,,T,25.0,,799.0,47.0,,,230,,,,10.3390/e21050448,2019,Effects of Annealing on Microstructure and Mechanical Properties of Metastable Powder Metallurgy CoCrFeNiMo0.2 High Entropy Alloy
104,Co1 Cr1 Fe1 Mo0.2 Ni1,FCC,ANNEAL,FCC,,,8.3,,T,25.0,,802.0,37.0,,,230,,,,10.3390/e21050448,2019,Effects of Annealing on Microstructure and Mechanical Properties of Metastable Powder Metallurgy CoCrFeNiMo0.2 High Entropy Alloy
104,Co1 Cr1 Fe1 Mo0.2 Ni1,FCC,ANNEAL,FCC,,,8.3,,T,25.0,,823.0,36.0,,,230,,,,10.3390/e21050448,2019,Effects of Annealing on Microstructure and Mechanical Properties of Metastable Powder Metallurgy CoCrFeNiMo0.2 High Entropy Alloy
104,Co1 Cr1 Fe1 Mo0.2 Ni1,FCC,ANNEAL,FCC,,,8.3,,T,25.0,,849.0,34.0,,,230,,,,10.3390/e21050448,2019,Effects of Annealing on Microstructure and Mechanical Properties of Metastable Powder Metallurgy CoCrFeNiMo0.2 High Entropy Alloy
104,Co1 Cr1 Fe1 Mo0.2 Ni1,FCC,ANNEAL,FCC,,,8.3,,T,25.0,,895.0,32.0,,,230,,,,10.3390/e21050448,2019,Effects of Annealing on Microstructure and Mechanical Properties of Metastable Powder Metallurgy CoCrFeNiMo0.2 High Entropy Alloy
105,Al0.569 Ca0.143 Li0.857 Mg1 Si0.286 Y0.003,,CAST,other,,1.7,1.6,,C,25.0,556.0,,3.0,,,37,,,,10.3390/ma12071136,2019,Novel Ultralight-Weight Complex Concentrated Alloys with High Strength
105,Al0.429 Ca0.286 Li1 Mg1 Si0.143,,CAST,other,,1.57,1.5,,C,25.0,418.0,,13.0,,,32,,,,10.3390/ma12071136,2019,Novel Ultralight-Weight Complex Concentrated Alloys with High Strength
105,Al0.312 Ca0.021 Li0.792 Mg1 Si0.021,,CAST,other,,1.52,1.4,,C,25.0,360.0,,9.0,,,34,,,,10.3390/ma12071136,2019,Novel Ultralight-Weight Complex Concentrated Alloys with High Strength
105,Al0.333 Ca0.011 Li0.844 Mg1 Si0.033,,CAST,other,,1.5,1.4,,C,25.0,342.0,,44.0,,,33,,,,10.3390/ma12071136,2019,Novel Ultralight-Weight Complex Concentrated Alloys with High Strength
105,Al0.333 Ca0.011 Li0.867 Mg1 Si0.011,,CAST,other,,1.46,1.4,,C,25.0,300.0,,63.0,,,33,,,,10.3390/ma12071136,2019,Novel Ultralight-Weight Complex Concentrated Alloys with High Strength
106,Co1 Cr1 Fe1 Ni1 Pd1,FCC,CAST,FCC,,,9.0,295.0,,,,,,,,204,,,,10.3390/e21030288,2019,Effect of Mn Addition on the Microstructures and Mechanical Properties of CoCrFeNiPd High Entropy Alloy
106,Co1 Cr1 Fe1 Mn0.2 Ni1 Pd1,,CAST,other,,,8.9,470.0,C,25.0,650.0,,50.0,,,204,,,,10.3390/e21030288,2019,Effect of Mn Addition on the Microstructures and Mechanical Properties of CoCrFeNiPd High Entropy Alloy
106,Co1 Cr1 Fe1 Mn0.4 Ni1 Pd1,,CAST,other,,,8.9,380.0,C,25.0,650.0,,46.0,,,204,,,,10.3390/e21030288,2019,Effect of Mn Addition on the Microstructures and Mechanical Properties of CoCrFeNiPd High Entropy Alloy
106,Co1 Cr1 Fe1 Mn0.6 Ni1 Pd1,,CAST,other,,,8.8,180.0,C,25.0,650.0,,42.0,,,203,,,,10.3390/e21030288,2019,Effect of Mn Addition on the Microstructures and Mechanical Properties of CoCrFeNiPd High Entropy Alloy
106,Co1 Cr1 Fe1 Mn0.8 Ni1 Pd1,,CAST,other,,,8.8,160.0,C,25.0,650.0,,35.0,,,203,,,,10.3390/e21030288,2019,Effect of Mn Addition on the Microstructures and Mechanical Properties of CoCrFeNiPd High Entropy Alloy
108,Al0.3 Co1 Cr1 Fe1 Mn1 Ni1,,POWDER,other,,,7.8,,,,,,,,,211,,,,10.1016/j.scriptamat.2018.12.021,2019,Strengthening of Al0.3CoCrFeMnNi-based ODS high entropy alloys with incremental changes in the concentration of Y2O3
109,Cr1 Fe1 Ni1 Ti0.2,,CAST,other,,,7.8,362.2,C,25.0,2297.94,,5.8,,,223,,,,10.1557/jmr.2019.40,2019,Effects of titanium addition on microstructure and mechanical properties of CrFeNiTix (x = 0.2–0.6) compositionally complex alloys
109,Cr1 Fe1 Ni1 Ti0.3,,CAST,other,,,7.7,510.3,C,25.0,2364.63,,,,,220,,,,10.1557/jmr.2019.40,2019,Effects of titanium addition on microstructure and mechanical properties of CrFeNiTix (x = 0.2–0.6) compositionally complex alloys
109,Cr1 Fe1 Ni1 Ti0.4,BCC,CAST,BCC,,,7.6,600.3,C,25.0,2475.41,,6.5,,,217,,,,10.1557/jmr.2019.40,2019,Effects of titanium addition on microstructure and mechanical properties of CrFeNiTix (x = 0.2–0.6) compositionally complex alloys
109,Cr1 Fe1 Ni1 Ti0.5,BCC,CAST,BCC,,,7.5,709.6,C,25.0,2380.79,,,,,214,,,,10.1557/jmr.2019.40,2019,Effects of titanium addition on microstructure and mechanical properties of CrFeNiTix (x = 0.2–0.6) compositionally complex alloys
109,Cr1 Fe1 Ni1 Ti0.6,BCC,CAST,BCC,,,7.4,718.2,C,25.0,1923.15,,,,,211,,,,10.1557/jmr.2019.40,2019,Effects of titanium addition on microstructure and mechanical properties of CrFeNiTix (x = 0.2–0.6) compositionally complex alloys
110,Al1 Cr1 Cu1 Fe1 Mn1,,POWDER,other,,,6.8,633.0,C,25.0,1010.0,,,,,178,,,,10.1557/jmr.2019.18,2019,"Materials-structure-property correlation study of spark plasma sintered AlCuCrFeMnWx (x = 0, 0.05, 0.1, 0.5) high-entropy alloys"
110,Al1 Cr1 Cu1 Fe1 Mn1 W0.05,,POWDER,other,,,6.9,680.0,C,25.0,1120.0,,,,,180,,,,10.1557/jmr.2019.18,2019,"Materials-structure-property correlation study of spark plasma sintered AlCuCrFeMnWx (x = 0, 0.05, 0.1, 0.5) high-entropy alloys"
110,Al1 Cr1 Cu1 Fe1 Mn1 W0.1,,POWDER,other,,,7.1,705.0,C,25.0,1250.0,,,,,182,,,,10.1557/jmr.2019.18,2019,"Materials-structure-property correlation study of spark plasma sintered AlCuCrFeMnWx (x = 0, 0.05, 0.1, 0.5) high-entropy alloys"
110,Al1 Cr1 Cu1 Fe1 Mn1 W0.5,,POWDER,other,,,8.0,780.0,C,25.0,1510.0,,,,,199,,,,10.1557/jmr.2019.18,2019,"Materials-structure-property correlation study of spark plasma sintered AlCuCrFeMnWx (x = 0, 0.05, 0.1, 0.5) high-entropy alloys"
111,Co1 Cu1 Fe1 Nb0.5 Ni1,,WROUGHT,other,,,8.6,,,,,,,,,178,,,,10.1557/jmr.2019.36,2019,Effect of niobium addition in FeCoNiCuNbx high-entropy alloys
111,Co0.2 Cu0.2 Fe0.2 Nb1 Ni0.2,,WROUGHT,other,,,8.6,,C,25.0,1498.0,,37.6,,,142,,,,10.1557/jmr.2019.36,2019,Effect of niobium addition in FeCoNiCuNbx high-entropy alloys
111,Co0.133 Cu0.133 Fe0.133 Nb1 Ni0.133,,WROUGHT,other,,,8.6,,C,25.0,1635.0,,31.7,,,134,,,,10.1557/jmr.2019.36,2019,Effect of niobium addition in FeCoNiCuNbx high-entropy alloys
111,Co0.086 Cu0.086 Fe0.086 Nb1 Ni0.086,,WROUGHT,other,,,8.6,,C,25.0,1703.0,,18.3,,,126,,,,10.1557/jmr.2019.36,2019,Effect of niobium addition in FeCoNiCuNbx high-entropy alloys
111,Co0.067 Cu0.067 Fe0.067 Nb1 Ni0.067,,WROUGHT,other,,,8.6,,C,25.0,1415.0,,12.6,,,122,,,,10.1557/jmr.2019.36,2019,Effect of niobium addition in FeCoNiCuNbx high-entropy alloys
112,Co0.2 Cr0.2 Fe1 Mn0.6,,CAST,other,,,7.8,296.0,,,,,,,,214,,,,10.1016/j.msea.2019.01.088,2019,"The effect of boron content on the microstructure and mechanical properties of Fe50-XMn30Co10Cr10BX (x = 0, 0.3, 0.6 and 1.7 wt%) multi-component alloys prepared by arc-melting"
112,B0.006 Co0.201 Cr0.201 Fe1 Mn0.604,,CAST,other,,,7.8,282.0,,,,,,,,,,,,10.1016/j.msea.2019.01.088,2019,"The effect of boron content on the microstructure and mechanical properties of Fe50-XMn30Co10Cr10BX (x = 0, 0.3, 0.6 and 1.7 wt%) multi-component alloys prepared by arc-melting"
112,B0.012 Co0.202 Cr0.202 Fe1 Mn0.607,,CAST,other,,,7.7,306.0,,,,,,,,,,,,10.1016/j.msea.2019.01.088,2019,"The effect of boron content on the microstructure and mechanical properties of Fe50-XMn30Co10Cr10BX (x = 0, 0.3, 0.6 and 1.7 wt%) multi-component alloys prepared by arc-melting"
112,B0.035 Co0.207 Cr0.207 Fe1 Mn0.621,,CAST,other,,,7.7,452.0,,,,,,,,,,,,10.1016/j.msea.2019.01.088,2019,"The effect of boron content on the microstructure and mechanical properties of Fe50-XMn30Co10Cr10BX (x = 0, 0.3, 0.6 and 1.7 wt%) multi-component alloys prepared by arc-melting"
113,Al0.186 Cr0.149 Fe1 Mn0.861 Ni0.28,,CAST,other,,,7.4,,T,25.0,159.0,535.0,,40.8 ,,199,,,,10.1016/j.msea.2019.01.083,2019,The effects of carbon on the phase stability and mechanical properties of heat-treated FeNiMnCrAl high entropy alloys
113,Al0.186 Cr0.149 Fe1 Mn0.861 Ni0.28,,ANNEAL,other,,,7.4,,T,25.0,409.0,584.0,,10.5 ,,199,,,,10.1016/j.msea.2019.01.083,2019,The effects of carbon on the phase stability and mechanical properties of heat-treated FeNiMnCrAl high entropy alloys
113,Al0.186 Cr0.149 Fe1 Mn0.861 Ni0.28,,CAST,other,,,7.4,,T,25.0,355.0,1174.0,,49.5 ,,,,,,10.1016/j.msea.2019.01.083,2019,The effects of carbon on the phase stability and mechanical properties of heat-treated FeNiMnCrAl high entropy alloys
113,Al0.186 Cr0.149 Fe1 Mn0.861 Ni0.28,,ANNEAL,other,,,7.4,,T,25.0,954.0,978.0,,2 ,,,,,,10.1016/j.msea.2019.01.083,2019,The effects of carbon on the phase stability and mechanical properties of heat-treated FeNiMnCrAl high entropy alloys
114,Hf1 Ti1 Zr1,Other,CAST,other,,,8.1,211.0,C,25.0,773.0,,17.0,,,87,,,,10.1007/s00339-019-2484-1,2019,Effect of Sc and Y addition on the microstructure and properties of HCP-structured high-entropy alloys
114,Hf1 Sc1 Ti1 Zr1,Other,CAST,other,,,6.8,233.0,C,25.0,1001.0,,21.9,,,84,,,,10.1007/s00339-019-2484-1,2019,Effect of Sc and Y addition on the microstructure and properties of HCP-structured high-entropy alloys
114,Hf1 Ti1 Y1 Zr1,Other,CAST,other,,,7.2,241.0,C,25.0,554.0,,17.7,,,82,,,,10.1007/s00339-019-2484-1,2019,Effect of Sc and Y addition on the microstructure and properties of HCP-structured high-entropy alloys
114,Hf1 Sc1 Ti1 Y1 Zr1,Other,CAST,other,,,6.4,256.0,C,25.0,793.0,,15.7,,,80,,,,10.1007/s00339-019-2484-1,2019,Effect of Sc and Y addition on the microstructure and properties of HCP-structured high-entropy alloys
115,Co1 Cr1 Fe1 Ga1 Ni1,,CAST,other,,,7.7,,,,,,,,,,,,,10.1007/s10853-018-03196-8,2018,The effect of cooling rate on the microstructure and mechanical properties of NiCoFeCrGa high-entropy alloy
116,Al0.562 Co0.938 Cr0.312 Fe0.312 Ni1,,CAST,other,,,7.5,305.4,C,25.0,1129.4,,16.7,,,188,,,,10.1007/s00339-019-2506-z,2019,Enhancing the mechanical properties of casting eutectic high entropy alloys with Mo addition
116,Al0.581 Co0.968 Cr0.323 Fe0.323 Mo0.032 Ni1,,CAST,other,,,7.5,357.3,C,25.0,1159.7,,18.2,,,190,,,,10.1007/s00339-019-2506-z,2019,Enhancing the mechanical properties of casting eutectic high entropy alloys with Mo addition
116,Al0.6 Co1 Cr0.333 Fe0.333 Mo0.067 Ni1,,CAST,other,,,7.5,362.6,C,25.0,1250.8,,14.7,,,191,,,,10.1007/s00339-019-2506-z,2019,Enhancing the mechanical properties of casting eutectic high entropy alloys with Mo addition
116,Al0.6 Co1 Cr0.333 Fe0.333 Mo0.1 Ni0.967,,CAST,other,,,7.5,359.7,C,25.0,1198.3,,14.5,,,192,,,,10.1007/s00339-019-2506-z,2019,Enhancing the mechanical properties of casting eutectic high entropy alloys with Mo addition
118,Co1 Cr1 Fe1 Mo0.149 Ni1,,POWDER,other,,,8.3,210.0,,,,,,,,229,,,,10.3390/met9030351,2019,Gradient Distribution of Microstructures and Mechanical Properties in a FeCoCrNiMo High-Entropy Alloy during Spark Plasma Sintering
119,Co1 Cr1 Cu1 Fe1 Ni1,FCC,CAST,FCC,,,8.3,,C,25.0,300.0,,50.2,,,206,,,,10.1007/s11665-018-3837-1,2019,Improvement of Microstructure and Mechanical Properties of CoCrCuFeNi High-Entropy Alloys By V Addition
119,Co1 Cr1 Cu1 Fe1 Ni1 V0.042,,CAST,other,,,8.3,,C,25.0,303.0,,50.2,,,205,,,,10.1007/s11665-018-3837-1,2019,Improvement of Microstructure and Mechanical Properties of CoCrCuFeNi High-Entropy Alloys By V Addition
119,Co1 Cr1 Cu1 Fe1 Ni1 V0.087,,CAST,other,,,8.3,,C,25.0,307.0,,50.2,,,204,,,,10.1007/s11665-018-3837-1,2019,Improvement of Microstructure and Mechanical Properties of CoCrCuFeNi High-Entropy Alloys By V Addition
119,Co1 Cr1 Cu1 Fe1 Ni1 V0.136,,CAST,other,,,8.3,,C,25.0,330.0,,50.2,,,204,,,,10.1007/s11665-018-3837-1,2019,Improvement of Microstructure and Mechanical Properties of CoCrCuFeNi High-Entropy Alloys By V Addition
119,Co1 Cr1 Cu1 Fe1 Ni1 V0.19,,CAST,other,,,8.3,,C,25.0,616.0,,28.0,,,203,,,,10.1007/s11665-018-3837-1,2019,Improvement of Microstructure and Mechanical Properties of CoCrCuFeNi High-Entropy Alloys By V Addition
120,Co1 Cr1 Cu1 Ni1 Zn1,FCC,POWDER,FCC,500.0,5.26,8.2,,C,25.0,,,,,,185,,,,10.3390/e21020122,2019,"Phases, Microstructures and Mechanical Properties of CoCrNiCuZn High-Entropy Alloy Prepared by Mechanical Alloying and Spark Plasma Sintering"
120,Co1 Cr1 Cu1 Ni1 Zn1,FCC,POWDER,FCC,500.0,6.26,8.2,,C,25.0,,,,,,185,,,,10.3390/e21020122,2019,"Phases, Microstructures and Mechanical Properties of CoCrNiCuZn High-Entropy Alloy Prepared by Mechanical Alloying and Spark Plasma Sintering"
120,Co1 Cr1 Cu1 Ni1 Zn1,FCC,POWDER,FCC,500.0,7.84,8.2,,C,25.0,,,,,,185,,,,10.3390/e21020122,2019,"Phases, Microstructures and Mechanical Properties of CoCrNiCuZn High-Entropy Alloy Prepared by Mechanical Alloying and Spark Plasma Sintering"
120,Co1 Cr1 Cu1 Ni1 Zn1,FCC,POWDER,FCC,500.0,7.89,8.2,615.0,C,25.0,,,,,,185,,,,10.3390/e21020122,2019,"Phases, Microstructures and Mechanical Properties of CoCrNiCuZn High-Entropy Alloy Prepared by Mechanical Alloying and Spark Plasma Sintering"
121,Hf1 Nb1 Ta1 Ti1 Zr1,BCC,CAST,BCC,500.0,,9.9,359.0,T,25.0,1155.0,1212.0,12.3,,59.0,111,,,,10.3390/e21020114,2019,Microstructure and Room Temperature Mechanical Properties of Different 3 and 4 Element Medium Entropy Alloys from HfNbTaTiZr System
121,Nb1 Ta1 Ti1 Zr1,BCC,CAST,BCC,500.0,,9.1,358.0,T,25.0,1144.0,1205.0,6.4,,98.0,119,,,,10.3390/e21020114,2019,Microstructure and Room Temperature Mechanical Properties of Different 3 and 4 Element Medium Entropy Alloys from HfNbTaTiZr System
121,Nb1 Ta1 Ti1,BCC,CAST,BCC,500.0,,9.9,246.0,T,25.0,620.0,683.0,18.5,,143.0,136,,,,10.3390/e21020114,2019,Microstructure and Room Temperature Mechanical Properties of Different 3 and 4 Element Medium Entropy Alloys from HfNbTaTiZr System
121,Ta1 Ti1 Zr1,,CAST,other,500.0,,9.2,485.0,T,25.0,,284.0,0.0,,157.0,123,,,,10.3390/e21020114,2019,Microstructure and Room Temperature Mechanical Properties of Different 3 and 4 Element Medium Entropy Alloys from HfNbTaTiZr System
121,Nb1 Ti1 Zr1,BCC,CAST,BCC,500.0,,6.5,295.0,T,25.0,956.0,991.0,14.2,,88.0,96,,,,10.3390/e21020114,2019,Microstructure and Room Temperature Mechanical Properties of Different 3 and 4 Element Medium Entropy Alloys from HfNbTaTiZr System
121,Nb1 Ta0.667 Ti0.667 Zr0.333,,CAST,other,500.0,,9.3,294.0,T,25.0,822.0,852.0,0.33,,127.0,123,,,,10.3390/e21020114,2019,Microstructure and Room Temperature Mechanical Properties of Different 3 and 4 Element Medium Entropy Alloys from HfNbTaTiZr System
121,Nb0.333 Ta0.667 Ti0.667 Zr1,,CAST,other,500.0,,8.8,489.0,T,25.0,,843.0,0.0,,93.0,114,,,,10.3390/e21020114,2019,Microstructure and Room Temperature Mechanical Properties of Different 3 and 4 Element Medium Entropy Alloys from HfNbTaTiZr System
122,Ag1 Al1 Nb1 Ti1 Zn1,,ANNEAL,other,,4.75,6.7,,,,,,,,,96,,,,10.1016/j.msea.2018.12.020,2019,Microstructural characterization and mechanical behavior of an AgAlNbTiZn complex composition alloy produced using powder metallurgy (P/M)
122,Ag1 Al1 Nb1 Ti1 Zn1,,ANNEAL,other,,5.78,6.7,,,,,,,,,96,,,,10.1016/j.msea.2018.12.020,2019,Microstructural characterization and mechanical behavior of an AgAlNbTiZn complex composition alloy produced using powder metallurgy (P/M)
122,Ag1 Al1 Nb1 Ti1 Zn1,,ANNEAL,other,,5.79,6.7,,,,,,,,,96,,,,10.1016/j.msea.2018.12.020,2019,Microstructural characterization and mechanical behavior of an AgAlNbTiZn complex composition alloy produced using powder metallurgy (P/M)
122,Ag1 Al1 Nb1 Ti1 Zn1,,ANNEAL,other,,5.51,6.7,,,,,,,,,96,,,,10.1016/j.msea.2018.12.020,2019,Microstructural characterization and mechanical behavior of an AgAlNbTiZn complex composition alloy produced using powder metallurgy (P/M)
122,Ag1 Al1 Nb1 Ti1 Zn1,,ANNEAL,other,,,6.7,,,,,,,,,96,,,,10.1016/j.msea.2018.12.020,2019,Microstructural characterization and mechanical behavior of an AgAlNbTiZn complex composition alloy produced using powder metallurgy (P/M)
123,Al0.774 Fe1 Mn0.903 Ni0.484,,CAST,other,,,6.6,310.0,,,,,,,,171,,,,10.1155/2019/2157592,2019,Effect of Heat Treatment and Titanium Addition on the Microstructure and Mechanical Properties of Cast Fe31Mn28 Ni15Al24.5Tix High-Entropy Alloys