IDENTIFIER: Reference ID,FORMULA,PROPERTY: Microstructure,PROPERTY: Processing method,PROPERTY: BCC/FCC/other,PROPERTY: grain size ($\mu$m),PROPERTY: Exp. Density (g/cm$^3$),PROPERTY: Calculated Density (g/cm$^3$),PROPERTY: HV,PROPERTY: Type of test,PROPERTY: Test temperature ($^\circ$C),PROPERTY: YS (MPa),PROPERTY: UTS (MPa),PROPERTY: Elongation (%),PROPERTY: Elongation plastic (%),PROPERTY: Exp. Young modulus (GPa),PROPERTY: Calculated Young modulus (GPa),PROPERTY: O content (wppm),PROPERTY: N content (wppm),PROPERTY: C content (wppm),REFERENCE: doi,REFERENCE: year,REFERENCE: title
165,Mo1 Nb1 Ta1 W1,BCC,OTHER,BCC,,13.6,13.7,,C,23.0,996.0,,,,,250,,,,10.1016/j.actamat.2019.06.032,2019,High temperature strength of refractory complex concentrated alloys
165,Mo1 Nb1 Ti1,BCC,OTHER,BCC,,7.67,7.7,,C,23.0,1100.0,,,,,177,,,,10.1016/j.actamat.2019.06.032,2019,High temperature strength of refractory complex concentrated alloys
165,Nb1 Ta0.3 Ti1 Zr1,BCC,OTHER,BCC,,7.81,7.4,,C,23.0,882.0,,,,,101,,,,10.1016/j.actamat.2019.06.032,2019,High temperature strength of refractory complex concentrated alloys
165,Nb1 Ti1 Zr1,BCC,OTHER,BCC,,6.63,6.5,,C,23.0,975.0,,,,,94,,,,10.1016/j.actamat.2019.06.032,2019,High temperature strength of refractory complex concentrated alloys
165,Al1 Cr1 Mo1 Nb1 Ti1,BCC+Laves,ANNEAL,other,,6.56,6.6,,C,23.0,1010.0,,,,,,,,,10.1016/j.actamat.2019.06.032,2019,High temperature strength of refractory complex concentrated alloys
165,Al0.24 Nb1 Ti1 V1 Zr1,BCC+Laves,OTHER,other,,6.34,6.3,,C,23.0,1240.0,,,,,,,,,10.1016/j.actamat.2019.06.032,2019,High temperature strength of refractory complex concentrated alloys
165,Al1 Mo0.5 Nb1 Ta0.5 Ti1 Zr1,B2+BCC,OTHER,other,,7.14,7.1,,C,23.0,2000.0,,,,,,,,,10.1016/j.actamat.2019.06.032,2019,High temperature strength of refractory complex concentrated alloys
165,Cr1 Nb0.333 Ti0.333 Zr0.333,BCC+Laves,OTHER,other,,6.56,6.8,,C,23.0,1576.0,,,,,,,,,10.1016/j.actamat.2019.06.032,2019,High temperature strength of refractory complex concentrated alloys
165,Cr1 Mo0.5 Nb1 Ta0.5 Ti1 Zr1,BCC+BCC+Laves,OTHER,other,,7.98,8.0,,C,23.0,1595.0,,,,,,,,,10.1016/j.actamat.2019.06.032,2019,High temperature strength of refractory complex concentrated alloys
165,Hf1 Mo0.5 Nb1 Si0.3 Ti1 V0.5,BCC+Sec.,CAST,other,,8.46,8.5,,C,23.0,1617.0,,,,,,,,,10.1016/j.actamat.2019.06.032,2019,High temperature strength of refractory complex concentrated alloys
165,Hf1 Mo0.5 Nb1 Si0.5 Ti1 V0.5,BCC+Sec.,CAST,other,,8.16,8.2,,C,23.0,1787.0,,,,,,,,,10.1016/j.actamat.2019.06.032,2019,High temperature strength of refractory complex concentrated alloys
165,Hf1 Mo0.5 Nb1 Si0.7 Ti1 V0.5,BCC+Sec.,CAST,other,,7.89,7.9,,C,23.0,2134.0,,,,,,,,,10.1016/j.actamat.2019.06.032,2019,High temperature strength of refractory complex concentrated alloys
165,Mo1 Nb1 Ti1 V1 Zr1,BCC+Laves,OTHER,other,,7.27,7.1,,C,23.0,1706.0,,,,,,,,,10.1016/j.actamat.2019.06.032,2019,High temperature strength of refractory complex concentrated alloys
165,Nb1 Re0.3 Ti1 Zr1,BCC+Laves,OTHER,other,,7.81,7.5,,C,23.0,1244.0,,,,,,,,,10.1016/j.actamat.2019.06.032,2019,High temperature strength of refractory complex concentrated alloys
165,Nb1 Ta1 Ti1 V1 Zr1,BCC+BCC,OTHER,other,,8.43,8.5,,C,23.0,1395.0,,,,,,,,,10.1016/j.actamat.2019.06.032,2019,High temperature strength of refractory complex concentrated alloys
165,Al0.4 Hf0.6 Nb1 Ta1 Ti1 Zr1,BCC,OTHER,BCC,,9.08,9.1,,C,1000.0,298.0,,,,,107,,,,10.1016/j.actamat.2019.06.032,2019,High temperature strength of refractory complex concentrated alloys
165,Al1 Cr1 Mo1 Ti1,BCC,ANNEAL,BCC,,5.98,6.0,,C,1000.0,375.0,,,,,189,,,,10.1016/j.actamat.2019.06.032,2019,High temperature strength of refractory complex concentrated alloys
165,Al1 Mo1 Nb1 Ti1,BCC,ANNEAL,BCC,,6.46,6.5,,C,1000.0,540.0,,,,,151,,,,10.1016/j.actamat.2019.06.032,2019,High temperature strength of refractory complex concentrated alloys
165,Hf1 Mo0.5 Nb1 Ti1 V0.5,BCC,CAST,BCC,,8.96,9.0,,C,1000.0,368.0,,,,,126,,,,10.1016/j.actamat.2019.06.032,2019,High temperature strength of refractory complex concentrated alloys
165,Hf1 Mo1 Nb1 Ta1 Ti1 Zr1,BCC,CAST,BCC,,9.93,9.9,,C,1000.0,814.0,,,,,137,,,,10.1016/j.actamat.2019.06.032,2019,High temperature strength of refractory complex concentrated alloys
165,Hf1 Mo1 Nb1 Ti1 Zr1,BCC,CAST,BCC,,8.68,8.7,,C,1000.0,635.0,,,,,128,,,,10.1016/j.actamat.2019.06.032,2019,High temperature strength of refractory complex concentrated alloys
165,Hf1 Mo1 Ta1 Ti1 Zr1,BCC,CAST,BCC,,10.18,10.2,,C,1000.0,855.0,,,,,143,,,,10.1016/j.actamat.2019.06.032,2019,High temperature strength of refractory complex concentrated alloys
165,Hf1 Nb1 Ta1 Ti1 Zr1,BCC,OTHER,BCC,,9.89,9.9,,C,1000.0,295.0,,,,,107,,,,10.1016/j.actamat.2019.06.032,2019,High temperature strength of refractory complex concentrated alloys
165,Mo1 Nb1 Ta1 Ti1 V1 W1,BCC,CAST,BCC,,10.91,11.0,,C,1000.0,753.0,,,,,209,,,,10.1016/j.actamat.2019.06.032,2019,High temperature strength of refractory complex concentrated alloys
165,Mo1 Nb1 Ta1 Ti1 W1,BCC,CAST,BCC,,11.72,11.8,,C,1000.0,620.0,,,,,222,,,,10.1016/j.actamat.2019.06.032,2019,High temperature strength of refractory complex concentrated alloys
165,Mo1 Nb1 Ta1 V1 W1,BCC,OTHER,BCC,,12.29,12.4,,C,1000.0,842.0,,,,,229,,,,10.1016/j.actamat.2019.06.032,2019,High temperature strength of refractory complex concentrated alloys
165,Mo1 Nb1 Ta1 W1,BCC,OTHER,BCC,,13.6,13.7,,C,1000.0,548.0,,,,,250,,,,10.1016/j.actamat.2019.06.032,2019,High temperature strength of refractory complex concentrated alloys
165,Mo1 Nb1 Ti1,BCC,OTHER,BCC,,7.67,7.7,,C,1000.0,504.0,,,,,177,,,,10.1016/j.actamat.2019.06.032,2019,High temperature strength of refractory complex concentrated alloys
165,Nb1 Ta0.3 Ti1 Zr1,BCC,OTHER,BCC,,7.81,7.4,,C,1000.0,274.0,,,,,101,,,,10.1016/j.actamat.2019.06.032,2019,High temperature strength of refractory complex concentrated alloys
165,Nb1 Ti1 Zr1,BCC,OTHER,BCC,,6.63,6.5,,C,1000.0,141.0,,,,,94,,,,10.1016/j.actamat.2019.06.032,2019,High temperature strength of refractory complex concentrated alloys
165,Al1 Cr1 Mo1 Nb1 Ti1,BCC+Laves,ANNEAL,other,,6.56,6.6,,C,1000.0,550.0,,,,,,,,,10.1016/j.actamat.2019.06.032,2019,High temperature strength of refractory complex concentrated alloys
165,Al0.24 Nb1 Ti1 V1 Zr1,BCC+Laves,OTHER,other,,6.34,6.3,,C,1000.0,82.0,,,,,,,,,10.1016/j.actamat.2019.06.032,2019,High temperature strength of refractory complex concentrated alloys
165,Al1 Mo0.5 Nb1 Ta0.5 Ti1 Zr1,B2+BCC,OTHER,other,,7.14,7.1,,C,1000.0,745.0,,,,,,,,,10.1016/j.actamat.2019.06.032,2019,High temperature strength of refractory complex concentrated alloys
165,Cr1 Nb0.333 Ti0.333 Zr0.333,BCC+Laves,OTHER,other,,6.56,6.8,,C,1000.0,139.0,,,,,,,,,10.1016/j.actamat.2019.06.032,2019,High temperature strength of refractory complex concentrated alloys
165,Cr1 Mo0.5 Nb1 Ta0.5 Ti1 Zr1,BCC+BCC+Laves,OTHER,other,,7.98,8.0,,C,1000.0,546.0,,,,,,,,,10.1016/j.actamat.2019.06.032,2019,High temperature strength of refractory complex concentrated alloys
165,Hf1 Mo0.5 Nb1 Si0.3 Ti1 V0.5,BCC+Sec.,CAST,other,,8.46,8.5,,C,1000.0,398.0,,,,,,,,,10.1016/j.actamat.2019.06.032,2019,High temperature strength of refractory complex concentrated alloys
165,Hf1 Mo0.5 Nb1 Si0.5 Ti1 V0.5,BCC+Sec.,CAST,other,,8.16,8.2,,C,1000.0,614.0,,,,,,,,,10.1016/j.actamat.2019.06.032,2019,High temperature strength of refractory complex concentrated alloys
165,Hf1 Mo0.5 Nb1 Si0.7 Ti1 V0.5,BCC+Sec.,CAST,other,,7.89,7.9,,C,1000.0,673.0,,,,,,,,,10.1016/j.actamat.2019.06.032,2019,High temperature strength of refractory complex concentrated alloys
165,Mo1 Nb1 Ti1 V1 Zr1,BCC+Laves,OTHER,other,,7.27,7.1,,C,1000.0,467.0,,,,,,,,,10.1016/j.actamat.2019.06.032,2019,High temperature strength of refractory complex concentrated alloys
165,Nb1 Re0.3 Ti1 Zr1,BCC+Laves,OTHER,other,,7.81,7.5,,C,1000.0,323.0,,,,,,,,,10.1016/j.actamat.2019.06.032,2019,High temperature strength of refractory complex concentrated alloys
165,Nb1 Ta1 Ti1 V1 Zr1,BCC+BCC,OTHER,other,,8.43,8.5,,C,1000.0,190.0,,,,,,,,,10.1016/j.actamat.2019.06.032,2019,High temperature strength of refractory complex concentrated alloys
165,Al0.4 Hf0.6 Nb1 Ta1 Ti1 Zr1,BCC,OTHER,BCC,,9.08,9.1,,C,1200.0,89.0,,,,,107,,,,10.1016/j.actamat.2019.06.032,2019,High temperature strength of refractory complex concentrated alloys
165,Al1 Cr1 Mo1 Ti1,BCC,ANNEAL,BCC,,5.98,6.0,,C,1200.0,100.0,,,,,189,,,,10.1016/j.actamat.2019.06.032,2019,High temperature strength of refractory complex concentrated alloys
165,Al1 Mo1 Nb1 Ti1,BCC,ANNEAL,BCC,,6.46,6.5,,C,1200.0,200.0,,,,,151,,,,10.1016/j.actamat.2019.06.032,2019,High temperature strength of refractory complex concentrated alloys
165,Hf1 Mo0.5 Nb1 Ti1 V0.5,BCC,CAST,BCC,,8.96,9.0,,C,1200.0,60.0,,,,,126,,,,10.1016/j.actamat.2019.06.032,2019,High temperature strength of refractory complex concentrated alloys
165,Hf1 Mo1 Nb1 Ta1 Ti1 Zr1,BCC,CAST,BCC,,9.93,9.9,,C,1200.0,556.0,,,,,137,,,,10.1016/j.actamat.2019.06.032,2019,High temperature strength of refractory complex concentrated alloys
165,Hf1 Mo1 Nb1 Ti1 Zr1,BCC,CAST,BCC,,8.68,8.7,,C,1200.0,187.0,,,,,128,,,,10.1016/j.actamat.2019.06.032,2019,High temperature strength of refractory complex concentrated alloys
165,Hf1 Mo1 Ta1 Ti1 Zr1,BCC,CAST,BCC,,10.18,10.2,,C,1200.0,404.0,,,,,143,,,,10.1016/j.actamat.2019.06.032,2019,High temperature strength of refractory complex concentrated alloys
165,Hf1 Nb1 Ta1 Ti1 Zr1,BCC,OTHER,BCC,,9.89,9.9,,C,1200.0,92.0,,,,,107,,,,10.1016/j.actamat.2019.06.032,2019,High temperature strength of refractory complex concentrated alloys
165,Mo1 Nb1 Ta1 Ti1 V1 W1,BCC,CAST,BCC,,10.91,11.0,,C,1200.0,659.0,,,,,209,,,,10.1016/j.actamat.2019.06.032,2019,High temperature strength of refractory complex concentrated alloys
165,Mo1 Nb1 Ta1 Ti1 W1,BCC,CAST,BCC,,11.72,11.8,,C,1200.0,586.0,,,,,222,,,,10.1016/j.actamat.2019.06.032,2019,High temperature strength of refractory complex concentrated alloys
165,Mo1 Nb1 Ta1 V1 W1,BCC,OTHER,BCC,,12.29,12.4,,C,1200.0,735.0,,,,,229,,,,10.1016/j.actamat.2019.06.032,2019,High temperature strength of refractory complex concentrated alloys
165,Mo1 Nb1 Ta1 W1,BCC,OTHER,BCC,,13.6,13.7,,C,1200.0,506.0,,,,,250,,,,10.1016/j.actamat.2019.06.032,2019,High temperature strength of refractory complex concentrated alloys
165,Mo1 Nb1 Ti1,BCC,OTHER,BCC,,7.67,7.7,,C,1200.0,324.0,,,,,177,,,,10.1016/j.actamat.2019.06.032,2019,High temperature strength of refractory complex concentrated alloys
165,Nb1 Ta0.3 Ti1 Zr1,BCC,OTHER,BCC,,7.81,7.4,,C,1200.0,102.0,,,,,101,,,,10.1016/j.actamat.2019.06.032,2019,High temperature strength of refractory complex concentrated alloys
165,Nb1 Ti1 Zr1,BCC,OTHER,BCC,,6.63,6.5,,C,1200.0,61.0,,,,,94,,,,10.1016/j.actamat.2019.06.032,2019,High temperature strength of refractory complex concentrated alloys
165,Al1 Cr1 Mo1 Nb1 Ti1,BCC+Laves,ANNEAL,other,,6.56,6.6,,C,1200.0,105.0,,,,,,,,,10.1016/j.actamat.2019.06.032,2019,High temperature strength of refractory complex concentrated alloys
165,Al0.24 Nb1 Ti1 V1 Zr1,BCC+Laves,OTHER,other,,6.34,6.3,,C,1200.0,24.0,,,,,,,,,10.1016/j.actamat.2019.06.032,2019,High temperature strength of refractory complex concentrated alloys
165,Al1 Mo0.5 Nb1 Ta0.5 Ti1 Zr1,B2+BCC,OTHER,other,,7.14,7.1,,C,1200.0,250.0,,,,,,,,,10.1016/j.actamat.2019.06.032,2019,High temperature strength of refractory complex concentrated alloys
165,Cr1 Nb0.333 Ti0.333 Zr0.333,BCC+Laves,OTHER,other,,6.56,6.8,,C,1200.0,32.0,,,,,,,,,10.1016/j.actamat.2019.06.032,2019,High temperature strength of refractory complex concentrated alloys
165,Cr1 Mo0.5 Nb1 Ta0.5 Ti1 Zr1,BCC+BCC+Laves,OTHER,other,,7.98,8.0,,C,1200.0,170.0,,,,,,,,,10.1016/j.actamat.2019.06.032,2019,High temperature strength of refractory complex concentrated alloys
165,Hf1 Mo0.5 Nb1 Si0.3 Ti1 V0.5,BCC+Sec.,CAST,other,,8.46,8.5,,C,1200.0,166.0,,,,,,,,,10.1016/j.actamat.2019.06.032,2019,High temperature strength of refractory complex concentrated alloys
165,Hf1 Mo0.5 Nb1 Si0.5 Ti1 V0.5,BCC+Sec.,CAST,other,,8.16,8.2,,C,1200.0,188.0,,,,,,,,,10.1016/j.actamat.2019.06.032,2019,High temperature strength of refractory complex concentrated alloys
165,Hf1 Mo0.5 Nb1 Si0.7 Ti1 V0.5,BCC+Sec.,CAST,other,,7.89,7.9,,C,1200.0,235.0,,,,,,,,,10.1016/j.actamat.2019.06.032,2019,High temperature strength of refractory complex concentrated alloys
165,Mo1 Nb1 Ti1 V1 Zr1,BCC+Laves,OTHER,other,,7.27,7.1,,C,1200.0,116.0,,,,,,,,,10.1016/j.actamat.2019.06.032,2019,High temperature strength of refractory complex concentrated alloys
165,Nb1 Re0.3 Ti1 Zr1,BCC+Laves,OTHER,other,,7.81,7.5,,C,1200.0,89.0,,,,,,,,,10.1016/j.actamat.2019.06.032,2019,High temperature strength of refractory complex concentrated alloys
165,Nb1 Ta1 Ti1 V1 Zr1,BCC+BCC,OTHER,other,,8.43,8.5,,C,1200.0,78.0,,,,,,,,,10.1016/j.actamat.2019.06.032,2019,High temperature strength of refractory complex concentrated alloys
166,Co1 Cr1 Fe1 Mn1 Ni1,FCC,WROUGHT,FCC,245.48,7.753,8.0,,T,25.0,293.1,625.6,63.0,,,220,,,,10.1016/j.intermet.2019.106486,2019,High-cycle fatigue and tensile deformation behaviors of coarse-grained equiatomic CoCrFeMnNi high entropy alloy and unexpected hardening behavior during cyclic loading
203,Hf1 Nb1 Ta1 Ti1 Zr1,BCC,WROUGHT,BCC,40.0,,9.9,,T,25.0,985.0,1004.0,15.7,,,107,,,,10.1016/j.jallcom.2019.04.291,2019,Grain growth and Hall-Petch relationship in a refractory HfNbTaZrTi high-entropy alloy
203,Hf1 Nb1 Ta1 Ti1 Zr1,BCC,WROUGHT,BCC,87.0,,9.9,,T,25.0,972.0,999.5,12.6,,,107,,,,10.1016/j.jallcom.2019.04.291,2019,Grain growth and Hall-Petch relationship in a refractory HfNbTaZrTi high-entropy alloy
203,Hf1 Nb1 Ta1 Ti1 Zr1,BCC,WROUGHT,BCC,112.0,,9.9,,T,25.0,967.0,980.6,10.8,,,107,,,,10.1016/j.jallcom.2019.04.291,2019,Grain growth and Hall-Petch relationship in a refractory HfNbTaZrTi high-entropy alloy
204,Co1 Fe1 Ni1,FCC,WROUGHT,FCC,,,8.5,,T,25.0,,,15.0,,,207,,,,10.1016/j.intermet.2019.106477,2019,Effects of heat treatment on the microstructure and properties of cold-forged CoNiFe medium entropy alloy
204,Co1 Fe1 Ni1,FCC,WROUGHT,FCC,42.0,,8.5,,T,25.0,276.0,540.0,51.0,,,207,,,,10.1016/j.intermet.2019.106477,2019,Effects of heat treatment on the microstructure and properties of cold-forged CoNiFe medium entropy alloy
204,Co1 Fe1 Ni1,FCC,WROUGHT,FCC,74.0,,8.5,,T,25.0,217.0,498.0,47.0,,,207,,,,10.1016/j.intermet.2019.106477,2019,Effects of heat treatment on the microstructure and properties of cold-forged CoNiFe medium entropy alloy
204,Co1 Fe1 Ni1,FCC,WROUGHT,FCC,90.0,,8.5,,T,25.0,201.0,430.0,44.5,,,207,,,,10.1016/j.intermet.2019.106477,2019,Effects of heat treatment on the microstructure and properties of cold-forged CoNiFe medium entropy alloy
205,Co1 Cr1 Ni1,,ANNEAL,other,16.0,,8.3,,T,-196.0,600.0,1247.0,68.0,,,,,,,10.1016/j.jmst.2018.12.002,2019,Superb cryogenic strength of equiatomic CrCoNi derived from gradient hierarchical microstructure
205,Co1 Cr1 Ni1,,ANNEAL,other,16.0,,8.3,,T,24.0,400.0,800.0,60.0,,,,,,,10.1016/j.jmst.2018.12.002,2019,Superb cryogenic strength of equiatomic CrCoNi derived from gradient hierarchical microstructure
205,Co1 Cr1 Ni1,,ANNEAL,other,16.0,,8.3,,T,-196.0,1215.0,1440.0,48.0,,,,,,,10.1016/j.jmst.2018.12.002,2019,Superb cryogenic strength of equiatomic CrCoNi derived from gradient hierarchical microstructure
206,Cr0.286 Mo0.476 Nb1 Ta0.024 Ti0.31 V0.286,BCC+Sec.,POWDER,other,0.075,8.02,8.0,741.0,C,25.0,2680.0,,,,,,,,,10.1016/j.ijrmhm.2019.02.009,2019,"Fabrication, microstructure and mechanical property of a novel Nb-rich refractory high-entropy alloy strengthened by in-situ formation of dispersoids"
207,Hf1 Mo1 Nb1 Ti1 Zr1,BCC,CAST,BCC,,8.68,8.7,,C,25.0,1719.0,,,,,128,,,,10.1016/j.intermet.2015.10.011,2016,Effect of composing element on microstructure and mechanical properties in Mo–Nb–Hf–Zr–Ti multi-principle component alloys
208,Co1 Fe1 Ni1,FCC,WROUGHT,FCC,53.7,,8.5,,T,25.0,,,,,161.0,207,,,,10.1016/j.actamat.2019.04.017,2019,Effect of elemental combination on friction stress and Hall-Petch relationship in face-centered cubic high / medium entropy alloys
208,Co1 Cr0.053 Ni1,FCC,WROUGHT,FCC,7.28,,8.8,,T,25.0,,,,,219.0,207,,,,10.1016/j.actamat.2019.04.017,2019,Effect of elemental combination on friction stress and Hall-Petch relationship in face-centered cubic high / medium entropy alloys
208,Fe1 Mn1 Ni1,FCC,WROUGHT,FCC,0.862,,8.1,,T,25.0,529.0,613.0,25.0,,182.0,203,,,,10.1016/j.actamat.2019.04.017,2019,Effect of elemental combination on friction stress and Hall-Petch relationship in face-centered cubic high / medium entropy alloys
208,Fe1 Mn1 Ni1,FCC,WROUGHT,FCC,0.894,,8.1,,T,25.0,522.0,601.0,25.0,,182.0,203,,,,10.1016/j.actamat.2019.04.017,2019,Effect of elemental combination on friction stress and Hall-Petch relationship in face-centered cubic high / medium entropy alloys
208,Fe1 Mn1 Ni1,FCC,WROUGHT,FCC,1.25,,8.1,,T,25.0,460.0,599.0,27.0,,182.0,203,,,,10.1016/j.actamat.2019.04.017,2019,Effect of elemental combination on friction stress and Hall-Petch relationship in face-centered cubic high / medium entropy alloys
208,Fe1 Mn1 Ni1,FCC,WROUGHT,FCC,1.75,,8.1,,T,25.0,407.0,536.0,26.0,,182.0,203,,,,10.1016/j.actamat.2019.04.017,2019,Effect of elemental combination on friction stress and Hall-Petch relationship in face-centered cubic high / medium entropy alloys
208,Fe1 Mn1 Ni1,FCC,WROUGHT,FCC,2.26,,8.1,,T,25.0,372.0,542.0,31.0,,182.0,203,,,,10.1016/j.actamat.2019.04.017,2019,Effect of elemental combination on friction stress and Hall-Petch relationship in face-centered cubic high / medium entropy alloys
208,Fe1 Mn1 Ni1,FCC,WROUGHT,FCC,3.52,,8.1,,T,25.0,322.0,554.0,49.0,,182.0,203,,,,10.1016/j.actamat.2019.04.017,2019,Effect of elemental combination on friction stress and Hall-Petch relationship in face-centered cubic high / medium entropy alloys
208,Co1 Mn1 Ni1,FCC,WROUGHT,FCC,1.43,,8.4,,T,25.0,333.0,569.0,40.0,,190.0,202,,,,10.1016/j.actamat.2019.04.017,2019,Effect of elemental combination on friction stress and Hall-Petch relationship in face-centered cubic high / medium entropy alloys
208,Co1 Mn1 Ni1,FCC,WROUGHT,FCC,0.4,,8.4,,T,25.0,601.0,608.0,24.0,,190.0,202,,,,10.1016/j.actamat.2019.04.017,2019,Effect of elemental combination on friction stress and Hall-Petch relationship in face-centered cubic high / medium entropy alloys
208,Co1 Mn1 Ni1,FCC,WROUGHT,FCC,1.58,,8.4,,T,25.0,321.0,566.0,50.5,,190.0,202,,,,10.1016/j.actamat.2019.04.017,2019,Effect of elemental combination on friction stress and Hall-Petch relationship in face-centered cubic high / medium entropy alloys
208,Co1 Mn1 Ni1,FCC,WROUGHT,FCC,2.67,,8.4,,T,25.0,267.0,506.0,62.5,,190.0,202,,,,10.1016/j.actamat.2019.04.017,2019,Effect of elemental combination on friction stress and Hall-Petch relationship in face-centered cubic high / medium entropy alloys
208,Co1 Cr0.25 Ni1,FCC,WROUGHT,FCC,0.212,,8.7,,T,25.0,745.0,824.0,36.0,,223.0,213,,,,10.1016/j.actamat.2019.04.017,2019,Effect of elemental combination on friction stress and Hall-Petch relationship in face-centered cubic high / medium entropy alloys
208,Co1 Cr0.25 Ni1,FCC,WROUGHT,FCC,0.34,,8.7,,T,25.0,623.0,746.0,53.0,,223.0,213,,,,10.1016/j.actamat.2019.04.017,2019,Effect of elemental combination on friction stress and Hall-Petch relationship in face-centered cubic high / medium entropy alloys
208,Co1 Cr0.25 Ni1,FCC,WROUGHT,FCC,1.46,,8.7,,T,25.0,387.0,626.0,73.0,,223.0,213,,,,10.1016/j.actamat.2019.04.017,2019,Effect of elemental combination on friction stress and Hall-Petch relationship in face-centered cubic high / medium entropy alloys
208,Co1 Cr0.25 Ni1,FCC,WROUGHT,FCC,2.65,,8.7,,T,25.0,330.0,553.0,101.0,,223.0,213,,,,10.1016/j.actamat.2019.04.017,2019,Effect of elemental combination on friction stress and Hall-Petch relationship in face-centered cubic high / medium entropy alloys
208,Co1 Cr1 Fe1 Ni1,FCC,WROUGHT,FCC,0.295,,8.2,,T,25.0,631.0,732.0,39.0,,210.0,226,,,,10.1016/j.actamat.2019.04.017,2019,Effect of elemental combination on friction stress and Hall-Petch relationship in face-centered cubic high / medium entropy alloys