IDENTIFIER: Reference ID,FORMULA,PROPERTY: Microstructure,PROPERTY: Processing method,PROPERTY: grain size ($\mu$m),PROPERTY: ROM Density (g/cm$^3$),PROPERTY: Exp. Density (g/cm$^3$),PROPERTY: HV,PROPERTY: Type of test,PROPERTY: Test temperature ($^\circ$C),PROPERTY: YS (MPa),PROPERTY: UTS (MPa),PROPERTY: Elongation (%),PROPERTY: Elongation plastic (%),PROPERTY: Young modulus (GPa),PROPERTY: O content (wppm),PROPERTY: N content (wppm),PROPERTY: C content (wppm),REFERENCE: doi,REFERENCE: year
78,Al1 Mo0.5 Nb1 Ta0.5 Ti1 Zr0.5,B2,OTHER,,7.2,,,C,1000.0,935.0,1019.0,,,,,,,10.1016/j.matdes.2017.11.033,2017
78,Al1 Mo0.5 Nb1 Ta0.5 Ti1 Zr0.5,B2,OTHER,,7.2,,,C,25.0,,1320.0,,,,,,,10.1016/j.matdes.2017.11.033,2017
78,Al1 Nb1 Ta0.5 Ti1 Zr0.5,B2,OTHER,,6.9,,,C,1000.0,535.0,542.0,,,,,,,10.1016/j.matdes.2017.11.033,2017
78,Al1 Nb1 Ta0.5 Ti1 Zr0.5,B2,OTHER,,6.9,,,C,25.0,1352.0,1357.0,,,,,,,10.1016/j.matdes.2017.11.033,2017
79,Hf1 Nb1 Si0.5 Ti1 V1 Zr1,BCC+Laves+Sec.,ANNEAL,,7.5,,,C,400.0,1273.0,1335.0,14.5,,,,,,10.4028/www.scientific.net/MSF.849.76,
79,Hf1 Nb1 Si0.5 Ti1 V1 Zr1,BCC+Laves+Sec.,ANNEAL,,7.5,,,C,600.0,597.0,651.0,50.0,,,,,,10.4028/www.scientific.net/MSF.849.76,
79,Hf1 Nb1 Si0.5 Ti1 V1 Zr1,BCC+Laves+Sec.,ANNEAL,,7.5,,,C,800.0,102.0,107.0,50.0,,,,,,10.4028/www.scientific.net/MSF.849.76,
79,Hf1 Nb1 Si0.5 Ti1 V1 Zr1,BCC+Laves+Sec.,ANNEAL,,7.5,,,C,25.0,1483.0,1611.0,9.5,,,,,,10.4028/www.scientific.net/MSF.849.76,
79,Hf1 Nb1 Si0.5 Ti1 V1 Zr1,BCC+Laves+Sec.,CAST,,7.5,,,C,600.0,920.0,1252.0,50.0,,,,,,10.4028/www.scientific.net/MSF.849.76,
79,Hf1 Nb1 Si0.5 Ti1 V1 Zr1,BCC+Laves+Sec.,CAST,,7.5,,,C,800.0,371.0,427.0,50.0,,,,,,10.4028/www.scientific.net/MSF.849.76,
79,Hf1 Nb1 Si0.5 Ti1 V1 Zr1,BCC+Laves+Sec.,CAST,,7.5,,,C,25.0,1540.0,1643.0,16.8,,,,,,10.4028/www.scientific.net/MSF.849.76,
80,Hf1 Nb1 Ta1 Ti1 Zr1,BCC,OTHER,0.05,9.9,,420.0,T,25.0,1900.0,,7.9,,110.6,,,,10.1016/j.actamat.2017.09.035,2017
80,Hf1 Nb1 Ta1 Ti1 Zr1,BCC+HCP,OTHER,0.05,9.9,,530.0,T,25.0,1520.0,,1.7,,,,,,10.1016/j.actamat.2017.09.035,2017
80,Hf1 Nb1 Ta1 Ti1 Zr1,BCC+BCC+HCP,OTHER,0.1,9.9,,340.0,T,25.0,795.0,,5.0,,,,,,10.1016/j.actamat.2017.09.035,2017
80,Hf1 Nb1 Ta1 Ti1 Zr1,BCC,WROUGHT,100.0,9.9,,309.0,T,25.0,830.0,840.0,9.2,,110.6,,,,10.1016/j.actamat.2017.09.035,2017
81,Hf1 Nb1 Ta1 Ti1 Zr1,BCC,WROUGHT,,9.9,,366.0,T,25.0,1202.0,1295.0,4.7,,110.6,,,,10.1016/j.jallcom.2015.07.209,2015
81,Hf1 Nb1 Ta1 Ti1 Zr1,BCC+BCC,WROUGHT,,9.9,,,T,25.0,1303.0,1334.0,,,,,,,10.1016/j.jallcom.2015.07.209,2015
81,Hf1 Nb1 Ta1 Ti1 Zr1,BCC,WROUGHT,,9.9,,351.0,T,25.0,1145.0,1262.0,9.7,,110.6,,,,10.1016/j.jallcom.2015.07.209,2015
82,Hf1 Nb1 Ta1 Ti1 Zr1,BCC,WROUGHT,,9.9,,,T,25.0,958.0,974.0,,,110.6,,,,10.1016/j.matlet.2016.08.060,2016
82,Hf1 Nb1 Ta1 Ti1 Zr1,BCC,WROUGHT,,9.9,,,T,25.0,944.0,959.0,,,110.6,,,,10.1016/j.matlet.2016.08.060,2016
82,Hf1 Nb1 Ta1 Ti1 Zr1,BCC,WROUGHT,,9.9,,,T,25.0,940.0,953.0,,,110.6,,,,10.1016/j.matlet.2016.08.060,2016
83,Hf1 Nb1 Ta1 Ti1 Zr1,BCC,WROUGHT,,9.9,,,T,25.0,940.0,1080.0,,,110.6,,,,10.1016/jactamat.2017.09.062,2017
84,Hf1 Nb1 Ta1 Ti1 Zr1,BCC,OTHER,,9.9,,,C,25.0,929.0,,,,110.6,,,,10.1016/j.jallcom.2011.02.171,2011
85,Hf1 Nb1 Ta1 Ti1 Zr1,BCC,CAST,,9.9,,,C,25.0,905.0,,,,110.6,,,,10.1016/j.msea.2015.08.024,2015
86,Hf1 Nb1 Ta1 Ti1 Zr1,BCC,CAST,,9.9,,,C,25.0,890.0,,,,110.6,,,,10.1016/j.matchar.2015.11.018,2015
87,Hf1 Nb1 Ta1 Ti1 Zr1,BCC,CAST,,9.9,,,T,25.0,828.0,862.0,,,110.6,,,,10.1016/j.msea.2015.12.017,2015
87,Hf1 Nb1 Ta1 Ti1 Zr1,BCC,CAST,,9.9,,,T,25.0,827.0,856.0,,,110.6,,,,10.1016/j.msea.2015.12.017,2015
87,Hf1 Nb1 Ta1 Ti1 Zr1,BCC,CAST,,9.9,,,T,25.0,820.0,869.0,,,110.6,,,,10.1016/j.msea.2015.12.017,2015
87,Hf1 Nb1 Ta1 Ti1 Zr1,BCC,CAST,,9.9,,,T,25.0,803.0,810.0,,,110.6,,,,10.1016/j.msea.2015.12.017,2015
88,Al0.2 Mo1 Ta1 Ti1 V1,BCC,CAST,,9.2,,,C,25.0,1021.0,1249.0,,,184.0,,,,10.4028/www.scientific.net/MSF.898.638,
88,Al0.6 Mo1 Ta1 Ti1 V1,BCC,CAST,,8.6,,,C,25.0,962.0,1033.0,,,174.1,,,,10.4028/www.scientific.net/MSF.898.638,
88,Al1 Mo1 Ta1 Ti1 V1,BCC,CAST,,8.2,,,C,25.0,,735.0,,,165.8,,,,10.4028/www.scientific.net/MSF.898.638,
88,Mo1 Ta1 Ti1 V1,BCC,CAST,,9.5,,,C,25.0,1221.0,1454.0,,,189.8,,,,10.4028/www.scientific.net/MSF.898.638,
89,Hf1 Nb1 Ta1 Zr1,BCC+HCP,ANNEAL,,11.1,,571.0,C,25.0,2310.0,,0.3,,,,,,10.1016/j.actamat.2016.01.018,2016
89,Hf1 Nb1 Ta1 Zr1,BCC+HCP,ANNEAL,,11.1,,536.0,C,25.0,2100.0,2200.0,3.5,,,,,,10.1016/j.actamat.2016.01.018,2016
89,Hf1 Nb1 Ta1 Zr1,BCC+HCP,ANNEAL,,11.1,,,C,25.0,2020.0,2030.0,1.7,,,,,,10.1016/j.actamat.2016.01.018,2016
89,Hf1 Nb1 Ta1 Zr1,BCC+HCP,ANNEAL,,11.1,,550.0,C,25.0,1950.0,2010.0,2.2,,,,,,10.1016/j.actamat.2016.01.018,2016
89,Hf1 Nb1 Ta1 Zr1,BCC,CAST,,11.1,,365.0,C,25.0,1315.0,1800.0,21.6,,109.3,,,,10.1016/j.actamat.2016.01.018,2016
90,Hf1 Ta0.4 Ti1 Zr1,BCC+HCP,CAST,,9.2,,,T,25.0,400.0,1100.0,,,,,,,10.1002/adma.201701678,
90,Hf1 Ta0.5 Ti1 Zr1,BCC+HCP,CAST,,9.4,,,T,25.0,700.0,1100.0,,,,,,,10.1002/adma.201701678,
90,Hf1 Ta0.6 Ti1 Zr1,BCC+HCP,CAST,,9.6,,,T,25.0,800.0,1100.0,,,,,,,10.1002/adma.201701678,
90,Hf1 Ta1 Ti1 Zr1,BCC,CAST,,10.2,,,T,25.0,1500.0,1500.0,,,112.0,,,,10.1002/adma.201701678,
91,Mo1 Nb1 Ta1 Ti0.25 W1,BCC,CAST,,13.0,,478.3,C,25.0,1109.0,1197.0,,,249.4,,,,10.1016/j.msea.2017.12.004,2017
91,Mo1 Nb1 Ta1 Ti0.5 W1,BCC,CAST,,12.6,,481.2,C,25.0,1211.0,1578.0,,,242.0,,,,10.1016/j.msea.2017.12.004,2017
91,Mo1 Nb1 Ta1 Ti0.75 W1,BCC,CAST,,12.1,,495.6,C,25.0,1304.0,1593.0,,,235.4,,,,10.1016/j.msea.2017.12.004,2017
91,Mo1 Nb1 Ta1 Ti1 W1,BCC,CAST,,11.7,,507.5,C,25.0,1455.0,1910.0,,,229.4,,,,10.1016/j.msea.2017.12.004,2017
91,Mo1 Nb1 Ta1 W1,BCC,CAST,,13.6,,,C,25.0,996.0,1148.0,,,257.8,,,,10.1016/j.msea.2017.12.004,2017
92,Mo1 Nb1 Ta1 Ti1 V1,BCC,CAST,,9.3,,,C,25.0,1400.0,2450.0,,,172.8,,,,10.1016/j.jallcom.2016.11.188,2016
93,Mo1 Nb1 Ta1 Ti1 V1 W1,BCC,CAST,,10.9,,,C,600.0,973.0,1590.0,,,212.5,,,,10.1016/j.intermet.2017.01.007,2017
93,Mo1 Nb1 Ta1 Ti1 V1 W1,BCC,CAST,,10.9,,,C,800.0,791.3,1180.0,,,,,,,10.1016/j.intermet.2017.01.007,2017
93,Mo1 Nb1 Ta1 Ti1 V1 W1,BCC,CAST,,10.9,,,C,1000.0,752.8,1105.0,,,,,,,10.1016/j.intermet.2017.01.007,2017
93,Mo1 Nb1 Ta1 Ti1 V1 W1,BCC,CAST,,10.9,,,C,1200.0,659.0,696.0,,,,,,,10.1016/j.intermet.2017.01.007,2017
93,Mo1 Nb1 Ta1 Ti1 V1 W1,BCC,CAST,,10.9,,,C,25.0,1515.0,2135.0,,,,,,,10.1016/j.intermet.2017.01.007,2017
93,Mo1 Nb1 Ta1 Ti1 W1,BCC,CAST,,11.7,,,C,600.0,689.0,1681.0,,,229.4,,,,10.1016/j.intermet.2017.01.007,2017
93,Mo1 Nb1 Ta1 Ti1 W1,BCC,CAST,,11.7,,,C,800.0,674.0,1618.0,,,,,,,10.1016/j.intermet.2017.01.007,2017
93,Mo1 Nb1 Ta1 Ti1 W1,BCC,CAST,,11.7,,,C,1000.0,620.0,1426.0,,,,,,,10.1016/j.intermet.2017.01.007,2017
93,Mo1 Nb1 Ta1 Ti1 W1,BCC,CAST,,11.7,,,C,1200.0,586.0,814.0,,,,,,,10.1016/j.intermet.2017.01.007,2017
93,Mo1 Nb1 Ta1 Ti1 W1,BCC,CAST,,11.7,,,C,25.0,1343.0,2005.0,,,,,,,10.1016/j.intermet.2017.01.007,2017
94,Mo1 Nb1 Ta1 Ti1 Zr1,BCC+BCC,CAST,,9.1,,,C,25.0,1390.0,,,,,,,,10.1016/j.msec.2016.12.057,2016
95,Mo1 Nb1 Ta1 Ti1 Zr1,BCC+BCC,ANNEAL,,9.1,,,C,25.0,1100.0,1200.0,,,,,,,10.1016/j.scriptamat.2016.10.028,2016
95,Mo1 Nb1 Ta1 Ti1 Zr1,BCC+BCC,CAST,,9.1,,,C,25.0,1375.0,1450.0,,,,,,,10.1016/j.scriptamat.2016.10.028,2016
96,Mo1 Nb1 Ta1 V1 W1,BCC,POWDER,,12.3,,,C,25.0,2612.0,3472.0,,,231.8,,,,10.1016/j.msea.2017.12.021,2017
97,Nb1 Ta1 Ti1 V1,BCC,CAST,,9.1,,,C,25.0,965.0,,,,133.8,,,,10.1016/j.msea.2016.07.102,2016
97,Nb1 Ta1 Ti1 V1 W1,BCC,CAST,,11.0,,,C,25.0,1420.0,1800.0,20.0,,189.2,,,,10.1016/j.msea.2016.07.102,2016
97,Nb1 Ta1 V1 W1,BCC,CAST,,12.8,,,C,25.0,1530.0,1700.0,12.0,,207.5,,,,10.1016/j.msea.2016.07.102,2016
98,Al0.25 Cr0.5 Nb0.5 Ti1 V0.25,BCC+Laves,ANNEAL,,5.8,,,C,600.0,930.0,,,,,,,,10.1016/j.matlet.2016.11.030,2016
98,Al0.25 Cr0.5 Nb0.5 Ti1 V0.25,BCC+Laves,ANNEAL,,5.8,,,C,800.0,445.0,,,,143.0,,,,10.1016/j.matlet.2016.11.030,2016
98,Al0.25 Cr0.5 Nb0.5 Ti1 V0.25,BCC+Laves,ANNEAL,,5.8,,,C,1000.0,90.0,,,,,,,,10.1016/j.matlet.2016.11.030,2016
98,Al0.25 Cr0.5 Nb0.5 Ti1 V0.25,BCC+Laves,ANNEAL,,5.8,,,C,25.0,1340.0,1700.0,,,,,,,10.1016/j.matlet.2016.11.030,2016
98,Al0.25 Cr0.5 Nb0.5 Ti1 V0.25,BCC,CAST,,5.8,,,C,25.0,1240.0,,,,,,,,10.1016/j.matlet.2016.11.030,2016
99,Al1 Cr0.5 Nb1 Ti1 V1,BCC,ANNEAL,,5.6,,,C,600.0,1005.0,1045.0,,,124.1,,,,10.1016/j.jallcom.2015.08.224,2015
99,Al1 Cr0.5 Nb1 Ti1 V1,BCC,ANNEAL,,5.6,,,C,800.0,640.0,685.0,,,,,,,10.1016/j.jallcom.2015.08.224,2015
99,Al1 Cr0.5 Nb1 Ti1 V1,BCC,ANNEAL,,5.6,,,C,1000.0,40.0,80.0,,,,,,,10.1016/j.jallcom.2015.08.224,2015
99,Al1 Cr0.5 Nb1 Ti1 V1,BCC,ANNEAL,,5.6,,,C,25.0,1300.0,1430.0,,,,,,,10.1016/j.jallcom.2015.08.224,2015
99,Al0.667 Cr1 Nb0.667 Ti0.667 V0.667,BCC+Laves,ANNEAL,,5.8,,,C,600.0,1370.0,1480.0,,,,,,,10.1016/j.jallcom.2015.08.224,2015
99,Al0.667 Cr1 Nb0.667 Ti0.667 V0.667,BCC+Laves,ANNEAL,,5.8,,,C,800.0,970.0,1045.0,,,,,,,10.1016/j.jallcom.2015.08.224,2015
99,Al0.667 Cr1 Nb0.667 Ti0.667 V0.667,BCC+Laves,ANNEAL,,5.8,,,C,1000.0,75.0,105.0,,,,,,,10.1016/j.jallcom.2015.08.224,2015
99,Al0.667 Cr1 Nb0.667 Ti0.667 V0.667,BCC+Laves,ANNEAL,,5.8,,,C,25.0,1700.0,1700.0,,,,,,,10.1016/j.jallcom.2015.08.224,2015
99,Al1 Cr1 Nb1 Ti1 V1,BCC+Laves,ANNEAL,,5.7,,,C,600.0,1015.0,1060.0,,,,,,,10.1016/j.jallcom.2015.08.224,2015
99,Al1 Cr1 Nb1 Ti1 V1,BCC+Laves,ANNEAL,,5.7,,,C,800.0,860.0,895.0,,,,,,,10.1016/j.jallcom.2015.08.224,2015
99,Al1 Cr1 Nb1 Ti1 V1,BCC+Laves,ANNEAL,,5.7,,,C,1000.0,65.0,95.0,,,,,,,10.1016/j.jallcom.2015.08.224,2015
99,Al1 Cr1 Nb1 Ti1 V1,BCC+Laves,ANNEAL,,5.7,,,C,25.0,1550.0,1570.0,,,,,,,10.1016/j.jallcom.2015.08.224,2015
99,Al1 Nb1 Ti1 V1,BCC,ANNEAL,,5.5,,,C,600.0,780.0,1005.0,,,104.8,,,,10.1016/j.jallcom.2015.08.224,2015
99,Al1 Nb1 Ti1 V1,BCC,ANNEAL,,5.5,,,C,800.0,560.0,700.0,,,,,,,10.1016/j.jallcom.2015.08.224,2015
99,Al1 Nb1 Ti1 V1,BCC,ANNEAL,,5.5,,,C,1000.0,110.0,,,,,,,,10.1016/j.jallcom.2015.08.224,2015
99,Al1 Nb1 Ti1 V1,BCC,ANNEAL,,5.5,,,C,25.0,1000.0,1280.0,,,,,,,10.1016/j.jallcom.2015.08.224,2015
214,Al1 Cr1 Fe1 Mo0.5 Ni1,BCC+B2,CAST,,,,623.7,C,25.0,1914.1,4023.6,27.9,,,,,,10.1002/maco.201709833,
214,Al1 Cr1 Fe1 Mo0.5 Ni1 Ti0.25,BCC+B2,CAST,,,,712.0,C,25.0,2161.7,3641.5,14.3,,,,,,10.1002/maco.201709833,
214,Al1 Cr1 Fe1 Mo0.5 Ni1 Ti0.4,BCC+B2,CAST,,,,731.9,C,25.0,2185.1,3673.4,14.8,,,,,,10.1002/maco.201709833,
214,Al1 Cr1 Fe1 Mo0.5 Ni1 Ti0.5,BCC+B2,CAST,,,,751.7,C,25.0,2228.7,3166.2,10.4,,,,,,10.1002/maco.201709833,
214,Al1 Cr1 Fe1 Mo0.5 Ni1 Ti0.6,BCC+B2,CAST,,,,756.1,C,25.0,1314.5,1314.5,,,,,,,10.1002/maco.201709833,
214,Al1 Cr1 Fe1 Mo0.5 Ni1 Ti0.75,BCC+B2,CAST,,,,766.2,C,25.0,618.8,618.8,,,,,,,10.1002/maco.201709833,
215,Al1 Cr1 Mo1 Nb1,Laves (C14)+Sec.,ANNEAL,,,,,,,,,,,,,,,10.1016/j.matdes.2018.06.003,2018
215,Al1 Cr1 Mo1 Nb1,Laves (C14)+Sec.,CAST,,,,,,,,,,,,,,,10.1016/j.matdes.2018.06.003,2018
215,Al1 Hf1 Nb1 Ti1,B2,ANNEAL,,,,,,,,,,,,,,,10.1016/j.matdes.2018.06.003,2018
215,Al1 Hf1 Nb1 Ti1,B2,CAST,,,,,,,,,,,,,,,10.1016/j.matdes.2018.06.003,2018
215,Al1 Hf1 Ta1 Ti1,B2,ANNEAL,,,,,,,,,,,,,,,10.1016/j.matdes.2018.06.003,2018
215,Al1 Hf1 Ta1 Ti1,B2,CAST,,,,,,,,,,,,,,,10.1016/j.matdes.2018.06.003,2018
215,Al1 Mo1 Nb1 Ti1,BCC+Sec.,ANNEAL,,,,,,,,,,,,,,,10.1016/j.matdes.2018.06.003,2018
215,Al1 Mo1 Nb1 Ti1,BCC,CAST,,,,509.0,,,,,,,,,,,10.1016/j.matdes.2018.06.003,2018
215,Al1 Nb1 Ta1 Ti1,BCC+Sec.,ANNEAL,,,,,,,,,,,,,,,10.1016/j.matdes.2018.06.003,2018
215,Al1 Nb1 Ta1 Ti1,BCC,CAST,,,,458.0,,,,,,,,,,,10.1016/j.matdes.2018.06.003,2018
215,Cr1 Mo1 Ta1 Ti1,BCC,ANNEAL,,,,555.0,,,,,,,,,,,10.1016/j.matdes.2018.06.003,2018
215,Cr1 Mo1 Ta1 Ti1,BCC,CAST,,,,539.0,,,,,,,,,,,10.1016/j.matdes.2018.06.003,2018
215,Cr1 Nb1 Ta1 Ti1,BCC+Laves (C15),ANNEAL,,,,,,,,,,,,,,,10.1016/j.matdes.2018.06.003,2018
215,Cr1 Nb1 Ta1 Ti1,BCC,CAST,,,,495.0,,,,,,,,,,,10.1016/j.matdes.2018.06.003,2018
215,Cr1 Nb1 Ti1 W1,BCC+Laves (C15),ANNEAL,,,,630.0,,,,,,,,,,,10.1016/j.matdes.2018.06.003,2018
215,Cr1 Nb1 Ti1 W1,BCC,CAST,,,,630.0,,,,,,,,,,,10.1016/j.matdes.2018.06.003,2018
215,Hf1 Nb1 Ta1 Ti1,BCC,ANNEAL,,,,280.0,,,,,,,,,,,10.1016/j.matdes.2018.06.003,2018
215,Hf1 Nb1 Ta1 Ti1,BCC,CAST,,,,270.0,,,,,,,,,,,10.1016/j.matdes.2018.06.003,2018
215,Mo1 Nb1 Ta1 Ti1 W1,BCC,ANNEAL,,,,482.0,,,,,,,,,,,10.1016/j.matdes.2018.06.003,2018
215,Mo1 Nb1 Ta1 Ti1 W1,BCC,CAST,,,,446.0,,,,,,,,,,,10.1016/j.matdes.2018.06.003,2018
215,Mo1 Nb1 Ta1 Ti1,BCC,ANNEAL,,,,407.0,,,,,,,,,,,10.1016/j.matdes.2018.06.003,2018
215,Mo1 Nb1 Ta1 Ti1,BCC,CAST,,,,431.0,,,,,,,,,,,10.1016/j.matdes.2018.06.003,2018
139,Al0.3 Co1 Cr1 Fe1 Ni1,,WROUGHT,0.71,,,,T,25.0,900.0,1074.0,25.0,,,,,,10.1016/j.scriptamat.2018.08.048,2018
149,Cr0.5 Fe1 Mn0.625 Ni0.375,,CAST,75.0,,,,C,25.0,219.0,,,,,,,,10.1016/j.jallcom.2018.08.093,2018
149,Al0.05 Cr0.5 Fe1 Mn0.625 Ni0.375,,CAST,,,,,C,25.0,354.0,,,,,,,,10.1016/j.jallcom.2018.08.093,2018
149,Al0.15 Cr0.5 Fe1 Mn0.625 Ni0.375,,CAST,,,,,C,25.0,550.0,,,,,,,,10.1016/j.jallcom.2018.08.093,2018
149,Al0.25 Cr0.5 Fe1 Mn0.625 Ni0.375,,CAST,175.0,,,,C,25.0,994.0,,,,,,,,10.1016/j.jallcom.2018.08.093,2018
149,Al0.35 Cr0.5 Fe1 Mn0.625 Ni0.375,,CAST,175.0,,,,C,25.0,942.0,,,,,,,,10.1016/j.jallcom.2018.08.093,2018
149,Cr0.5 Fe1 Mn0.625 Ni0.375,,CAST,75.0,,,,C,400.0,132.0,,,,,,,,10.1016/j.jallcom.2018.08.093,2018
149,Al0.05 Cr0.5 Fe1 Mn0.625 Ni0.375,,CAST,,,,,C,400.0,260.0,,,,,,,,10.1016/j.jallcom.2018.08.093,2018
149,Al0.15 Cr0.5 Fe1 Mn0.625 Ni0.375,,CAST,,,,,C,400.0,469.0,,,,,,,,10.1016/j.jallcom.2018.08.093,2018
149,Al0.25 Cr0.5 Fe1 Mn0.625 Ni0.375,,CAST,175.0,,,,C,400.0,943.0,,,,,,,,10.1016/j.jallcom.2018.08.093,2018
149,Al0.35 Cr0.5 Fe1 Mn0.625 Ni0.375,,CAST,175.0,,,,C,400.0,833.0,,,,,,,,10.1016/j.jallcom.2018.08.093,2018
149,Cr0.5 Fe1 Mn0.625 Ni0.375,,CAST,75.0,,,,C,600.0,115.0,,,,,,,,10.1016/j.jallcom.2018.08.093,2018
149,Al0.05 Cr0.5 Fe1 Mn0.625 Ni0.375,,CAST,,,,,C,600.0,155.0,,,,,,,,10.1016/j.jallcom.2018.08.093,2018
149,Al0.15 Cr0.5 Fe1 Mn0.625 Ni0.375,,CAST,,,,,C,600.0,272.0,,,,,,,,10.1016/j.jallcom.2018.08.093,2018
149,Al0.25 Cr0.5 Fe1 Mn0.625 Ni0.375,,CAST,175.0,,,,C,600.0,359.0,,,,,,,,10.1016/j.jallcom.2018.08.093,2018
149,Al0.35 Cr0.5 Fe1 Mn0.625 Ni0.375,,CAST,175.0,,,,C,600.0,326.0,,,,,,,,10.1016/j.jallcom.2018.08.093,2018
159,Co1 Cr1 Fe1 Mn1 Ni1,FCC,WROUGHT,4.4,,,,T,25.0,370.0,670.0,56.0,,,,,,10.1016/j.matchar.2018.06.036,2018
159,Co0.2 Cr0.2 Fe1 Mn0.6,,ANNEAL,45.0,,,,T,25.0,250.0,730.0,50.0,,,,,,10.1016/j.matchar.2018.06.036,2018
159,Co0.2 Cr0.2 Fe1 Mn0.6,,WROUGHT,4.5,,,,T,25.0,330.0,870.0,75.0,,,,,,10.1016/j.matchar.2018.06.036,2018
159,Co0.2 Cr0.2 Fe1 Mn0.6,,WROUGHT,6.0,,,,T,25.0,280.0,800.0,65.0,,,,,,10.1016/j.matchar.2018.06.036,2018
159,Co0.2 Cr0.2 Fe1 Mn0.6,,WROUGHT,15.0,,,,T,25.0,350.0,830.0,63.0,,,,,,10.1016/j.matchar.2018.06.036,2018
159,Co0.2 Cr0.2 Fe1 Mn0.6,,WROUGHT,6.5,,,,T,25.0,298.0,1400.0,45.0,,,,,,10.1016/j.matchar.2018.06.036,2018
159,Co0.2 Cr0.2 Fe1 Mn0.6,,WROUGHT,5.2,,,,T,25.0,400.0,1200.0,42.0,,,,,,10.1016/j.matchar.2018.06.036,2018
159,Al0.304 Co1 Cr1 Fe1 Ni1,,,0.7,,,,T,25.0,860.0,1050.0,48.0,,,,,,10.1016/j.matchar.2018.06.036,2018
159,Al0.304 Co1 Cr1 Fe1 Ni1,,,2.7,,,,T,25.0,690.0,930.0,51.0,,,,,,10.1016/j.matchar.2018.06.036,2018
159,Al0.304 Co1 Cr1 Fe1 Ni1,,,3.8,,,,T,25.0,550.0,800.0,64.0,,,,,,10.1016/j.matchar.2018.06.036,2018
159,Al0.304 Co1 Cr1 Fe1 Ni1,FCC,,53.0,,,,T,25.0,260.0,620.0,87.0,,,,,,10.1016/j.matchar.2018.06.036,2018
159,Al0.304 Co1 Cr1 Fe1 Ni1,,WROUGHT,,,,,,,,,,,,,,,10.1016/j.matchar.2018.06.036,2018
159,Al0.304 Co1 Cr1 Fe1 Ni1,FCC,WROUGHT,,,,,,,,,,,,,,,10.1016/j.matchar.2018.06.036,2018
159,Al0.304 Co1 Cr1 Fe1 Ni1,FCC,WROUGHT,144.0,,,,T,25.0,159.0,410.0,65.0,,,,,,10.1016/j.matchar.2018.06.036,2018
159,Al0.304 Co1 Cr1 Fe1 Ni1,,WROUGHT,144.0,,,,T,25.0,215.0,520.0,43.0,,,,,,10.1016/j.matchar.2018.06.036,2018
159,Al0.304 Co1 Cr1 Fe1 Ni1,,WROUGHT,144.0,,,,T,25.0,285.0,540.0,55.0,,,,,,10.1016/j.matchar.2018.06.036,2018
159,Al0.304 Co1 Cr1 Fe1 Ni1,FCC,WROUGHT,23.0,,,,T,25.0,263.0,589.0,60.0,,,,,,10.1016/j.matchar.2018.06.036,2018
159,Al0.304 Co1 Cr1 Fe1 Ni1,,WROUGHT,23.0,,,,T,25.0,490.0,840.0,45.0,,,,,,10.1016/j.matchar.2018.06.036,2018
159,Al0.304 Co1 Cr1 Fe1 Ni1,FCC,CAST,,,,,,,,,,,,,,,10.1016/j.matchar.2018.06.036,2018
159,Al0.304 Co1 Cr1 Fe1 Ni1,,ANNEAL,,,,,,,,,,,,,,,10.1016/j.matchar.2018.06.036,2018
159,Al0.304 Co1 Cr1 Fe1 Ni1,,CAST,,,,,T,25.0,175.0,335.0,58.0,,,,,,10.1016/j.matchar.2018.06.036,2018
159,Al0.304 Co1 Cr1 Fe1 Ni1,,ANNEAL,,,,,T,25.0,305.0,525.0,44.0,,,,,,10.1016/j.matchar.2018.06.036,2018
159,Al0.304 Co1 Cr1 Fe1 Ni1,,ANNEAL,,,,,T,25.0,280.0,570.0,44.0,,,,,,10.1016/j.matchar.2018.06.036,2018
159,Al0.304 Co1 Cr1 Fe1 Ni1,FCC,ANNEAL,,,,,,,,,,,,,,,10.1016/j.matchar.2018.06.036,2018
159,Al1 Co1 Cr1 Fe1 Ni1,,CAST,,,,,T,25.0,395.0,400.0,1.0,,,,,,10.1016/j.matchar.2018.06.036,2018
159,Al1 Co1 Cr1 Fe1 Ni1,,CAST,,,,,C,25.0,1380.0,,10.0,,,,,,10.1016/j.matchar.2018.06.036,2018
159,Al1 Co1 Cr1 Fe1 Ni1,,ANNEAL,,,,,C,25.0,1430.0,,1.6,,,,,,10.1016/j.matchar.2018.06.036,2018
159,Al1 Co1 Cr1 Fe1 Ni1,,ANNEAL,,,,,C,25.0,1690.0,,2.7,,,,,,10.1016/j.matchar.2018.06.036,2018
159,Al1 Co1 Cr1 Fe1 Ni1,,ANNEAL,,,,,C,25.0,1220.0,,13.0,,,,,,10.1016/j.matchar.2018.06.036,2018
159,Al1 Co1 Cr1 Fe1 Ni1,,ANNEAL,,,,,C,25.0,1450.0,,20.0,,,,,,10.1016/j.matchar.2018.06.036,2018
159,Al1 Co1 Cr1 Fe1 Ni1,,ANNEAL,,,,,T,25.0,900.0,935.0,0.8,,,,,,10.1016/j.matchar.2018.06.036,2018
159,Al0.515 Cr0.515 Fe1 Ni1,,CAST,,,,,T,25.0,796.0,1437.0,15.7,,,,,,10.1016/j.matchar.2018.06.036,2018
159,Al0.511 Co0.511 Cr0.511 Fe0.511 Ni1,,,,,,,T,25.0,545.0,1030.0,16.5,,,,,,10.1016/j.matchar.2018.06.036,2018
159,Al0.465 Co0.465 Cr0.465 Fe0.465 Ni1,,,,,,,T,25.0,545.0,1050.0,16.5,,,,,,10.1016/j.matchar.2018.06.036,2018
159,Al0.451 Co0.451 Cr0.451 Fe0.451 Ni1,,,,,,,T,25.0,545.0,1110.0,20.0,,,,,,10.1016/j.matchar.2018.06.036,2018
159,Al0.511 Co0.511 Cr0.511 Fe0.511 Ni1,,,,,,,T,-70.0,580.0,1034.0,10.5,,,,,,10.1016/j.matchar.2018.06.036,2018
159,Al0.465 Co0.465 Cr0.465 Fe0.465 Ni1,,,,,,,T,-70.0,595.0,1168.0,15.8,,,,,,10.1016/j.matchar.2018.06.036,2018
159,Al0.451 Co0.451 Cr0.451 Fe0.451 Ni1,,,,,,,T,-70.0,570.0,1143.0,18.0,,,,,,10.1016/j.matchar.2018.06.036,2018
159,Al0.511 Co0.511 Cr0.511 Fe0.511 Ni1,,,,,,,T,-192.0,700.0,1000.0,4.0,,,,,,10.1016/j.matchar.2018.06.036,2018
159,Al0.465 Co0.465 Cr0.465 Fe0.465 Ni1,,,,,,,T,-192.0,700.0,1000.0,7.0,,,,,,10.1016/j.matchar.2018.06.036,2018
159,Al0.451 Co0.451 Cr0.451 Fe0.451 Ni1,,,,,,,T,-192.0,700.0,1000.0,9.0,,,,,,10.1016/j.matchar.2018.06.036,2018
159,Al0.343 Co0.514 Cr0.514 Fe1 Ni0.514,,CAST,,,,,T,25.0,866.0,1223.0,7.9,,,,,,10.1016/j.matchar.2018.06.036,2018
159,Al0.343 Co0.514 Cr0.514 Fe1 Ni0.514,,CAST,,,,,T,650.0,400.0,468.0,6.3,,,,,,10.1016/j.matchar.2018.06.036,2018
159,Al0.343 Co0.514 Cr0.514 Fe1 Ni0.514,,CAST,,,,,T,700.0,220.0,340.0,5.4,,,,,,10.1016/j.matchar.2018.06.036,2018
159,Al0.343 Co0.514 Cr0.514 Fe1 Ni0.514,,CAST,,,,,C,25.0,1166.0,,30.2,,,,,,10.1016/j.matchar.2018.06.036,2018
159,Co1 Cr0.429 Fe0.571 Mo0.286 Ni0.571,FCC,CAST,,,,,T,25.0,350.0,720.0,21.9,,,,,,10.1016/j.matchar.2018.06.036,2018
159,Co1 Cr0.429 Fe0.571 Mo0.286 Ni0.571,,WROUGHT,,,,,T,25.0,1311.0,1410.0,12.1,,,,,,10.1016/j.matchar.2018.06.036,2018
159,Co1 Cr0.429 Fe0.571 Mo0.286 Ni0.571,,WROUGHT,,,,,T,25.0,1212.0,1360.0,14.9,,,,,,10.1016/j.matchar.2018.06.036,2018
159,Co1 Cr0.429 Fe0.571 Mo0.286 Ni0.571,,WROUGHT,,,,,T,25.0,1028.0,1249.0,18.3,,,,,,10.1016/j.matchar.2018.06.036,2018
159,Co1 Cr0.429 Fe0.571 Mo0.286 Ni0.571,,WROUGHT,,,,,T,25.0,879.0,1194.0,25.4,,,,,,10.1016/j.matchar.2018.06.036,2018
159,Co1 Cr0.429 Fe0.571 Mo0.286 Ni0.571,,WROUGHT,,,,,T,25.0,799.0,1127.0,28.2,,,,,,10.1016/j.matchar.2018.06.036,2018
159,Co1 Cr0.429 Fe0.571 Mo0.286 Ni0.571,FCC,WROUGHT,,,,,T,25.0,350.0,918.0,62.4,,,,,,10.1016/j.matchar.2018.06.036,2018
159,Co1 Cr1 Fe1 Ni1,FCC,CAST,,,,,T,25.0,155.0,472.4,58.9,,,,,,10.1016/j.matchar.2018.06.036,2018
159,Co1 Cr1 Fe1 Mo0.083 Ni1,,CAST,,,,,T,25.0,198.8,479.0,51.1,,,,,,10.1016/j.matchar.2018.06.036,2018
159,Co1 Cr1 Fe1 Mo0.208 Ni1,,CAST,,,,,T,25.0,254.7,589.6,55.1,,,,,,10.1016/j.matchar.2018.06.036,2018
159,Co1 Cr1 Fe1 Mo0.304 Ni1,,CAST,,,,,T,25.0,305.3,709.7,49.3,,,,,,10.1016/j.matchar.2018.06.036,2018
159,Co1 Cr1 Fe1 Mo0.304 Ni1,,WROUGHT,3.0,,,,T,25.0,815.5,1186.5,18.9,,,,,,10.1016/j.matchar.2018.06.036,2018