IDENTIFIER: Reference ID,FORMULA,PROPERTY: Microstructure,PROPERTY: Processing method,PROPERTY: BCC/FCC/other,PROPERTY: grain size ($\mu$m),PROPERTY: Exp. Density (g/cm$^3$),PROPERTY: Computed Density (g/cm$^3$),PROPERTY: HV,PROPERTY: Type of test,PROPERTY: Test temperature ($^\circ$C),PROPERTY: YS (MPa),PROPERTY: UTS (MPa),PROPERTY: Elongation (%),PROPERTY: Elongation plastic (%),PROPERTY: Exp. Young modulus (GPa),PROPERTY: Computed Young modulus (GPa),PROPERTY: O content (wppm),PROPERTY: N content (wppm),PROPERTY: C content (wppm),REFERENCE: doi,REFERENCE: year,REFERENCE: title
219,Al1 Co1 Cr1 Fe1 Ni1,,,other,,,7.1,,C,25.0,1313.0,,19.0,,,194,,,,10.1016/j.jallcom.2019.07.100,2019,"Effects of Ti-to-Al ratios on the phases, microstructures, mechanical properties, and corrosion resistance of Al2-xCoCrFeNiTix high-entropy alloys"
219,Co1 Cr1 Fe1 Mn1,,,other,,,7.8,,C,25.0,338.0,,4.3,,,224,,,,10.1016/j.jallcom.2019.07.100,2019,"Effects of Ti-to-Al ratios on the phases, microstructures, mechanical properties, and corrosion resistance of Al2-xCoCrFeNiTix high-entropy alloys"
219,Al1 Co1 Cr1 Fe1 Ni1 Ti0.5,,,other,,,6.9,,C,25.0,2260.0,,23.3,,,187,,,,10.1016/j.jallcom.2019.07.100,2019,"Effects of Ti-to-Al ratios on the phases, microstructures, mechanical properties, and corrosion resistance of Al2-xCoCrFeNiTix high-entropy alloys"
219,Al1 Co1 Cr1 Fe1 Ni1 Ti1,,,other,,,6.7,,C,25.0,1860.0,,8.8,,,181,,,,10.1016/j.jallcom.2019.07.100,2019,"Effects of Ti-to-Al ratios on the phases, microstructures, mechanical properties, and corrosion resistance of Al2-xCoCrFeNiTix high-entropy alloys"
219,Al0.667 Co0.667 Cr0.667 Fe0.667 Ni0.667 Ti1,,,other,,,6.5,,C,25.0,2220.0,,5.3,,,176,,,,10.1016/j.jallcom.2019.07.100,2019,"Effects of Ti-to-Al ratios on the phases, microstructures, mechanical properties, and corrosion resistance of Al2-xCoCrFeNiTix high-entropy alloys"
220,Al1 Co1 Cr1 Fe1 Ni1,,POWDER,other,,,7.1,,,,,,,,,194,,,,10.1016/j.jallcom.2019.06.301,2019,Effect of heat treatment on the phase evolution and mechanical properties of atomized AlCoCrFeNi high-entropy alloy powders
221,Hf1 Nb1 Ta1 Ti1 Zr1,,CAST,other,,,9.9,,C,25.0,929.0,,50.0,,,111,,,,10.1016/j.jallcom.2019.06.138,2019,Microstructures and mechanical properties of HfNbTaTiZrW and HfNbTaTiZrMoW refractory high-entropy alloys
221,Hf1 Nb1 Ta1 Ti1 W1 Zr1,,CAST,other,29.4,,11.5,,C,25.0,1550.0,,26.3,,,161,,,,10.1016/j.jallcom.2019.06.138,2019,Microstructures and mechanical properties of HfNbTaTiZrW and HfNbTaTiZrMoW refractory high-entropy alloys
221,Hf1 Mo1 Nb1 Ta1 Ti1 W1 Zr1,,CAST,other,31.7,,11.3,,C,25.0,1637.0,,15.5,,,185,,,,10.1016/j.jallcom.2019.06.138,2019,Microstructures and mechanical properties of HfNbTaTiZrW and HfNbTaTiZrMoW refractory high-entropy alloys
221,Hf1 Nb1 Ta1 Ti1 Zr1,,CAST,other,,,9.9,,C,800.0,535.0,,40.0,,,111,,,,10.1016/j.jallcom.2019.06.138,2019,Microstructures and mechanical properties of HfNbTaTiZrW and HfNbTaTiZrMoW refractory high-entropy alloys
221,Hf1 Nb1 Ta1 Ti1 W1 Zr1,,CAST,other,,,11.5,,C,800.0,577.0,,35.0,,,161,,,,10.1016/j.jallcom.2019.06.138,2019,Microstructures and mechanical properties of HfNbTaTiZrW and HfNbTaTiZrMoW refractory high-entropy alloys
221,Hf1 Mo1 Nb1 Ta1 Ti1 W1 Zr1,,CAST,other,,,11.3,,C,800.0,1065.0,,35.0,,,185,,,,10.1016/j.jallcom.2019.06.138,2019,Microstructures and mechanical properties of HfNbTaTiZrW and HfNbTaTiZrMoW refractory high-entropy alloys
221,Hf1 Nb1 Ta1 Ti1 Zr1,,CAST,other,,,9.9,,C,1000.0,295.0,,50.0,,,111,,,,10.1016/j.jallcom.2019.06.138,2019,Microstructures and mechanical properties of HfNbTaTiZrW and HfNbTaTiZrMoW refractory high-entropy alloys
221,Hf1 Nb1 Ta1 Ti1 W1 Zr1,,CAST,other,,,11.5,,C,1000.0,409.0,,35.0,,,161,,,,10.1016/j.jallcom.2019.06.138,2019,Microstructures and mechanical properties of HfNbTaTiZrW and HfNbTaTiZrMoW refractory high-entropy alloys
221,Hf1 Mo1 Nb1 Ta1 Ti1 W1 Zr1,,CAST,other,,,11.3,,C,1000.0,736.0,,35.0,,,185,,,,10.1016/j.jallcom.2019.06.138,2019,Microstructures and mechanical properties of HfNbTaTiZrW and HfNbTaTiZrMoW refractory high-entropy alloys
221,Hf1 Nb1 Ta1 Ti1 Zr1,,CAST,other,,,9.9,,C,1200.0,92.0,,50.0,,,111,,,,10.1016/j.jallcom.2019.06.138,2019,Microstructures and mechanical properties of HfNbTaTiZrW and HfNbTaTiZrMoW refractory high-entropy alloys
221,Hf1 Nb1 Ta1 Ti1 W1 Zr1,,CAST,other,,,11.5,,C,1200.0,345.0,,35.0,,,161,,,,10.1016/j.jallcom.2019.06.138,2019,Microstructures and mechanical properties of HfNbTaTiZrW and HfNbTaTiZrMoW refractory high-entropy alloys
221,Hf1 Mo1 Nb1 Ta1 Ti1 W1 Zr1,,CAST,other,,,11.3,,C,1200.0,703.0,,35.0,,,185,,,,10.1016/j.jallcom.2019.06.138,2019,Microstructures and mechanical properties of HfNbTaTiZrW and HfNbTaTiZrMoW refractory high-entropy alloys
222,Nb1 Ti1 Zr1,BCC,CAST,BCC,,,6.5,372.0,C,25.0,1223.0,,48.0,,,96,,,,10.1007/s12598-019-01310-6,2019,Microstructure and mechanical properties of NbZrTi and NbHfZrTi alloys
222,Hf1 Nb1 Ti1 Zr1,BCC,CAST,BCC,,,8.2,351.0,C,25.0,1000.0,,52.0,,,92,,,,10.1007/s12598-019-01310-6,2019,Microstructure and mechanical properties of NbZrTi and NbHfZrTi alloys
222,Nb1 Ti1 Zr1,BCC,ANNEAL,BCC,300.0,,6.5,,,,,,,,,96,,,,10.1007/s12598-019-01310-6,2019,Microstructure and mechanical properties of NbZrTi and NbHfZrTi alloys
222,Hf1 Nb1 Ti1 Zr1,BCC,ANNEAL,BCC,50.0,,8.2,,,,,,,,,92,,,,10.1007/s12598-019-01310-6,2019,Microstructure and mechanical properties of NbZrTi and NbHfZrTi alloys
222,Nb1 Ti1 Zr1,BCC,CAST,BCC,,,6.5,,C,1073.0,462.0,,51.0,,,96,,,,10.1007/s12598-019-01310-6,2019,Microstructure and mechanical properties of NbZrTi and NbHfZrTi alloys
222,Hf1 Nb1 Ti1 Zr1,BCC,CAST,BCC,,,8.2,,C,1073.0,303.0,,51.0,,,92,,,,10.1007/s12598-019-01310-6,2019,Microstructure and mechanical properties of NbZrTi and NbHfZrTi alloys
222,Nb1 Ti1 Zr1,BCC,CAST,BCC,,,6.5,,C,1273.0,218.0,,51.0,,,96,,,,10.1007/s12598-019-01310-6,2019,Microstructure and mechanical properties of NbZrTi and NbHfZrTi alloys
222,Hf1 Nb1 Ti1 Zr1,BCC,CAST,BCC,,,8.2,,C,1273.0,154.0,,51.0,,,92,,,,10.1007/s12598-019-01310-6,2019,Microstructure and mechanical properties of NbZrTi and NbHfZrTi alloys
223,Co1 Cr1 Fe1 Ni1,FCC,CAST,FCC,,,8.2,168.9,C,25.0,163.0,,80.0,,,225,,,,10.1016/j.intermet.2019.106550,2019,"Microstructure, mechanical properties and corrosion resistance of CoCrFeNiW  (x = 0, 0.2, 0.5) high entropy alloys"
223,Co1 Cr1 Fe1 Ni1 W0.2,FCC,CAST,FCC,,,8.7,244.0,C,25.0,335.0,,52.0,,,234,,,,10.1016/j.intermet.2019.106550,2019,"Microstructure, mechanical properties and corrosion resistance of CoCrFeNiW  (x = 0, 0.2, 0.5) high entropy alloys"
223,Co1 Cr1 Fe1 Ni1 W0.5,,CAST,other,,,9.4,357.9,C,25.0,556.0,,35.6,,,245,,,,10.1016/j.intermet.2019.106550,2019,"Microstructure, mechanical properties and corrosion resistance of CoCrFeNiW  (x = 0, 0.2, 0.5) high entropy alloys"
224,Cr1 Fe1 Mo1 Nb1 V1,,CAST,other,,,8.0,826.0,C,25.0,2663.0,,2.7,,,210,,,,10.1007/s40195-019-00935-x,2019,"Microstructure, Mechanical Properties, and Corrosion Behavior of MoNbFeCrV, MoNbFeCrTi, and MoNbFeVTi High-Entropy Alloys"
224,Cr1 Fe1 Mo1 Nb1 Ti1,,CAST,other,,,7.7,792.0,C,25.0,1647.0,,0.9,,,208,,,,10.1007/s40195-019-00935-x,2019,"Microstructure, Mechanical Properties, and Corrosion Behavior of MoNbFeCrV, MoNbFeCrTi, and MoNbFeVTi High-Entropy Alloys"
224,Fe1 Mo1 Nb1 Ti1 V1,,CAST,other,,,7.5,699.0,C,25.0,1707.0,,1.7,,,178,,,,10.1007/s40195-019-00935-x,2019,"Microstructure, Mechanical Properties, and Corrosion Behavior of MoNbFeCrV, MoNbFeCrTi, and MoNbFeVTi High-Entropy Alloys"
225,Al0.15 Cr0.5 Cu0.25 Fe0.5 Ni1,FCC,WROUGHT,FCC,,,7.9,107.0,T,62.0,169.0,,98.0,,16.6,203,,,,10.1016/j.matchar.2019.109792,2019,Precipitation behavior and its impact on mechanical properties in an aged carbon-containing Al0.3Cu0.5CrFeNi2 high-entropy alloy
225,Al0.15 Cr0.5 Cu0.25 Fe0.5 Ni1,,WROUGHT,other,,,7.9,209.0,T,350.0,642.0,,73.0,,47.0,203,,,,10.1016/j.matchar.2019.109792,2019,Precipitation behavior and its impact on mechanical properties in an aged carbon-containing Al0.3Cu0.5CrFeNi2 high-entropy alloy
225,Al0.15 Cr0.5 Cu0.25 Fe0.5 Ni1,,WROUGHT,other,,,7.9,321.0,T,535.0,904.0,,39.0,,35.2,203,,,,10.1016/j.matchar.2019.109792,2019,Precipitation behavior and its impact on mechanical properties in an aged carbon-containing Al0.3Cu0.5CrFeNi2 high-entropy alloy
225,Al0.15 Cr0.5 Cu0.25 Fe0.5 Ni1,,WROUGHT,other,,,7.9,159.0,T,255.0,584.0,,88.0,,51.4,203,,,,10.1016/j.matchar.2019.109792,2019,Precipitation behavior and its impact on mechanical properties in an aged carbon-containing Al0.3Cu0.5CrFeNi2 high-entropy alloy
226,Hf1 Nb1 Ta1 Ti1 Zr1,BCC,WROUGHT,BCC,60.0,,9.9,,,20.0,,,,,88.9,111,,,,10.1016/j.jallcom.2019.05.322,2019,Temperature dependence of elastic moduli in a refractory HfNbTaTiZr high-entropy alloy
226,Hf1 Nb1 Ta1 Ti1 Zr1,BCC,WROUGHT,BCC,,,9.9,,,40.0,,,,,88.6,111,,,,10.1016/j.jallcom.2019.05.322,2019,Temperature dependence of elastic moduli in a refractory HfNbTaTiZr high-entropy alloy
226,Hf1 Nb1 Ta1 Ti1 Zr1,BCC,WROUGHT,BCC,,,9.9,,,60.0,,,,,88.4,111,,,,10.1016/j.jallcom.2019.05.322,2019,Temperature dependence of elastic moduli in a refractory HfNbTaTiZr high-entropy alloy
226,Hf1 Nb1 Ta1 Ti1 Zr1,BCC,WROUGHT,BCC,,,9.9,,,80.0,,,,,88.1,111,,,,10.1016/j.jallcom.2019.05.322,2019,Temperature dependence of elastic moduli in a refractory HfNbTaTiZr high-entropy alloy
226,Hf1 Nb1 Ta1 Ti1 Zr1,BCC,WROUGHT,BCC,,,9.9,,,100.0,,,,,87.9,111,,,,10.1016/j.jallcom.2019.05.322,2019,Temperature dependence of elastic moduli in a refractory HfNbTaTiZr high-entropy alloy
226,Hf1 Nb1 Ta1 Ti1 Zr1,BCC,WROUGHT,BCC,,,9.9,,,120.0,,,,,87.7,111,,,,10.1016/j.jallcom.2019.05.322,2019,Temperature dependence of elastic moduli in a refractory HfNbTaTiZr high-entropy alloy
226,Hf1 Nb1 Ta1 Ti1 Zr1,BCC,WROUGHT,BCC,,,9.9,,,140.0,,,,,87.5,111,,,,10.1016/j.jallcom.2019.05.322,2019,Temperature dependence of elastic moduli in a refractory HfNbTaTiZr high-entropy alloy
226,Hf1 Nb1 Ta1 Ti1 Zr1,BCC,WROUGHT,BCC,,,9.9,,,160.0,,,,,87.3,111,,,,10.1016/j.jallcom.2019.05.322,2019,Temperature dependence of elastic moduli in a refractory HfNbTaTiZr high-entropy alloy
226,Hf1 Nb1 Ta1 Ti1 Zr1,BCC,WROUGHT,BCC,,,9.9,,,180.0,,,,,87.1,111,,,,10.1016/j.jallcom.2019.05.322,2019,Temperature dependence of elastic moduli in a refractory HfNbTaTiZr high-entropy alloy
226,Hf1 Nb1 Ta1 Ti1 Zr1,BCC,WROUGHT,BCC,,,9.9,,,200.0,,,,,86.9,111,,,,10.1016/j.jallcom.2019.05.322,2019,Temperature dependence of elastic moduli in a refractory HfNbTaTiZr high-entropy alloy
226,Hf1 Nb1 Ta1 Ti1 Zr1,BCC,WROUGHT,BCC,,,9.9,,,220.0,,,,,86.7,111,,,,10.1016/j.jallcom.2019.05.322,2019,Temperature dependence of elastic moduli in a refractory HfNbTaTiZr high-entropy alloy
226,Hf1 Nb1 Ta1 Ti1 Zr1,BCC,WROUGHT,BCC,,,9.9,,,240.0,,,,,86.5,111,,,,10.1016/j.jallcom.2019.05.322,2019,Temperature dependence of elastic moduli in a refractory HfNbTaTiZr high-entropy alloy
226,Hf1 Nb1 Ta1 Ti1 Zr1,BCC,WROUGHT,BCC,,,9.9,,,260.0,,,,,86.3,111,,,,10.1016/j.jallcom.2019.05.322,2019,Temperature dependence of elastic moduli in a refractory HfNbTaTiZr high-entropy alloy
226,Hf1 Nb1 Ta1 Ti1 Zr1,BCC,WROUGHT,BCC,,,9.9,,,280.0,,,,,86.1,111,,,,10.1016/j.jallcom.2019.05.322,2019,Temperature dependence of elastic moduli in a refractory HfNbTaTiZr high-entropy alloy
226,Hf1 Nb1 Ta1 Ti1 Zr1,BCC,WROUGHT,BCC,,,9.9,,,300.0,,,,,85.8,111,,,,10.1016/j.jallcom.2019.05.322,2019,Temperature dependence of elastic moduli in a refractory HfNbTaTiZr high-entropy alloy
226,Hf1 Nb1 Ta1 Ti1 Zr1,BCC,WROUGHT,BCC,,,9.9,,,320.0,,,,,85.5,111,,,,10.1016/j.jallcom.2019.05.322,2019,Temperature dependence of elastic moduli in a refractory HfNbTaTiZr high-entropy alloy
226,Hf1 Nb1 Ta1 Ti1 Zr1,BCC,WROUGHT,BCC,,,9.9,,,340.0,,,,,85.2,111,,,,10.1016/j.jallcom.2019.05.322,2019,Temperature dependence of elastic moduli in a refractory HfNbTaTiZr high-entropy alloy
226,Hf1 Nb1 Ta1 Ti1 Zr1,BCC,WROUGHT,BCC,,,9.9,,,360.0,,,,,84.9,111,,,,10.1016/j.jallcom.2019.05.322,2019,Temperature dependence of elastic moduli in a refractory HfNbTaTiZr high-entropy alloy
226,Hf1 Nb1 Ta1 Ti1 Zr1,BCC,WROUGHT,BCC,,,9.9,,,380.0,,,,,84.5,111,,,,10.1016/j.jallcom.2019.05.322,2019,Temperature dependence of elastic moduli in a refractory HfNbTaTiZr high-entropy alloy
226,Hf1 Nb1 Ta1 Ti1 Zr1,BCC,WROUGHT,BCC,,,9.9,,,400.0,,,,,84.2,111,,,,10.1016/j.jallcom.2019.05.322,2019,Temperature dependence of elastic moduli in a refractory HfNbTaTiZr high-entropy alloy
226,Hf1 Nb1 Ta1 Ti1 Zr1,BCC,WROUGHT,BCC,,,9.9,,,420.0,,,,,83.8,111,,,,10.1016/j.jallcom.2019.05.322,2019,Temperature dependence of elastic moduli in a refractory HfNbTaTiZr high-entropy alloy
226,Hf1 Nb1 Ta1 Ti1 Zr1,BCC,WROUGHT,BCC,,,9.9,,,440.0,,,,,83.5,111,,,,10.1016/j.jallcom.2019.05.322,2019,Temperature dependence of elastic moduli in a refractory HfNbTaTiZr high-entropy alloy
226,Hf1 Nb1 Ta1 Ti1 Zr1,BCC,WROUGHT,BCC,,,9.9,,,460.0,,,,,83.1,111,,,,10.1016/j.jallcom.2019.05.322,2019,Temperature dependence of elastic moduli in a refractory HfNbTaTiZr high-entropy alloy
226,Hf1 Nb1 Ta1 Ti1 Zr1,BCC,WROUGHT,BCC,,,9.9,,,480.0,,,,,82.7,111,,,,10.1016/j.jallcom.2019.05.322,2019,Temperature dependence of elastic moduli in a refractory HfNbTaTiZr high-entropy alloy
226,Hf1 Nb1 Ta1 Ti1 Zr1,BCC,WROUGHT,BCC,,,9.9,,,500.0,,,,,82.3,111,,,,10.1016/j.jallcom.2019.05.322,2019,Temperature dependence of elastic moduli in a refractory HfNbTaTiZr high-entropy alloy
226,Hf1 Nb1 Ta1 Ti1 Zr1,BCC,WROUGHT,BCC,,,9.9,,,520.0,,,,,81.9,111,,,,10.1016/j.jallcom.2019.05.322,2019,Temperature dependence of elastic moduli in a refractory HfNbTaTiZr high-entropy alloy
226,Hf1 Nb1 Ta1 Ti1 Zr1,BCC,WROUGHT,BCC,,,9.9,,,540.0,,,,,81.6,111,,,,10.1016/j.jallcom.2019.05.322,2019,Temperature dependence of elastic moduli in a refractory HfNbTaTiZr high-entropy alloy
226,Hf1 Nb1 Ta1 Ti1 Zr1,BCC,WROUGHT,BCC,,,9.9,,,560.0,,,,,81.3,111,,,,10.1016/j.jallcom.2019.05.322,2019,Temperature dependence of elastic moduli in a refractory HfNbTaTiZr high-entropy alloy
226,Hf1 Nb1 Ta1 Ti1 Zr1,BCC,WROUGHT,BCC,,,9.9,,,580.0,,,,,81.0,111,,,,10.1016/j.jallcom.2019.05.322,2019,Temperature dependence of elastic moduli in a refractory HfNbTaTiZr high-entropy alloy
226,Hf1 Nb1 Ta1 Ti1 Zr1,BCC,WROUGHT,BCC,,,9.9,,,600.0,,,,,80.7,111,,,,10.1016/j.jallcom.2019.05.322,2019,Temperature dependence of elastic moduli in a refractory HfNbTaTiZr high-entropy alloy
226,Hf1 Nb1 Ta1 Ti1 Zr1,BCC,WROUGHT,BCC,,,9.9,,,620.0,,,,,80.4,111,,,,10.1016/j.jallcom.2019.05.322,2019,Temperature dependence of elastic moduli in a refractory HfNbTaTiZr high-entropy alloy
226,Hf1 Nb1 Ta1 Ti1 Zr1,BCC,WROUGHT,BCC,,,9.9,,,640.0,,,,,80.2,111,,,,10.1016/j.jallcom.2019.05.322,2019,Temperature dependence of elastic moduli in a refractory HfNbTaTiZr high-entropy alloy
226,Hf1 Nb1 Ta1 Ti1 Zr1,BCC,WROUGHT,BCC,,,9.9,,,660.0,,,,,80.0,111,,,,10.1016/j.jallcom.2019.05.322,2019,Temperature dependence of elastic moduli in a refractory HfNbTaTiZr high-entropy alloy
226,Hf1 Nb1 Ta1 Ti1 Zr1,BCC,WROUGHT,BCC,,,9.9,,,680.0,,,,,79.8,111,,,,10.1016/j.jallcom.2019.05.322,2019,Temperature dependence of elastic moduli in a refractory HfNbTaTiZr high-entropy alloy
226,Hf1 Nb1 Ta1 Ti1 Zr1,BCC,WROUGHT,BCC,,,9.9,,,700.0,,,,,79.6,111,,,,10.1016/j.jallcom.2019.05.322,2019,Temperature dependence of elastic moduli in a refractory HfNbTaTiZr high-entropy alloy
226,Hf1 Nb1 Ta1 Ti1 Zr1,BCC,WROUGHT,BCC,,,9.9,,,720.0,,,,,79.3,111,,,,10.1016/j.jallcom.2019.05.322,2019,Temperature dependence of elastic moduli in a refractory HfNbTaTiZr high-entropy alloy
226,Hf1 Nb1 Ta1 Ti1 Zr1,BCC,WROUGHT,BCC,,,9.9,,,740.0,,,,,79.0,111,,,,10.1016/j.jallcom.2019.05.322,2019,Temperature dependence of elastic moduli in a refractory HfNbTaTiZr high-entropy alloy
226,Hf1 Nb1 Ta1 Ti1 Zr1,BCC,WROUGHT,BCC,,,9.9,,,760.0,,,,,78.7,111,,,,10.1016/j.jallcom.2019.05.322,2019,Temperature dependence of elastic moduli in a refractory HfNbTaTiZr high-entropy alloy
226,Hf1 Nb1 Ta1 Ti1 Zr1,BCC,WROUGHT,BCC,,,9.9,,,780.0,,,,,78.4,111,,,,10.1016/j.jallcom.2019.05.322,2019,Temperature dependence of elastic moduli in a refractory HfNbTaTiZr high-entropy alloy
226,Hf1 Nb1 Ta1 Ti1 Zr1,BCC,WROUGHT,BCC,,,9.9,,,800.0,,,,,78.1,111,,,,10.1016/j.jallcom.2019.05.322,2019,Temperature dependence of elastic moduli in a refractory HfNbTaTiZr high-entropy alloy
226,Hf1 Nb1 Ta1 Ti1 Zr1,BCC,WROUGHT,BCC,,,9.9,,,820.0,,,,,77.7,111,,,,10.1016/j.jallcom.2019.05.322,2019,Temperature dependence of elastic moduli in a refractory HfNbTaTiZr high-entropy alloy
226,Hf1 Nb1 Ta1 Ti1 Zr1,BCC,WROUGHT,BCC,,,9.9,,,840.0,,,,,77.4,111,,,,10.1016/j.jallcom.2019.05.322,2019,Temperature dependence of elastic moduli in a refractory HfNbTaTiZr high-entropy alloy
228,Co1 Cr1 Fe1 Ni1 Ti0.3,FCC,WROUGHT,FCC,90.0,,7.9,263.0,T,25.0,540.0,772.0,60.0,,,217,,,,10.1016/j.msea.2019.138181,2019,"The effects of substitution of Co with Ni on microstructure, mechanical properties, and age hardening of Co1-xCrFeNi1+xTi0.3 high-entropy alloys"
228,Co1 Cr1 Fe1 Ni1 Ti0.3,FCC,WROUGHT,FCC,216.0,,7.9,185.0,,,,,,,,217,,,,10.1016/j.msea.2019.138181,2019,"The effects of substitution of Co with Ni on microstructure, mechanical properties, and age hardening of Co1-xCrFeNi1+xTi0.3 high-entropy alloys"
228,Co0.333 Cr0.667 Fe0.667 Ni1 Ti0.2,FCC,WROUGHT,FCC,263.0,,7.9,197.0,,,,,,,,216,,,,10.1016/j.msea.2019.138181,2019,"The effects of substitution of Co with Ni on microstructure, mechanical properties, and age hardening of Co1-xCrFeNi1+xTi0.3 high-entropy alloys"
228,Co0.333 Cr0.667 Fe0.667 Ni1 Ti0.2,FCC,WROUGHT,FCC,90.0,,7.9,308.0,T,25.0,586.0,875.0,46.0,,,216,,,,10.1016/j.msea.2019.138181,2019,"The effects of substitution of Co with Ni on microstructure, mechanical properties, and age hardening of Co1-xCrFeNi1+xTi0.3 high-entropy alloys"
228,Cr0.5 Fe0.5 Ni1 Ti0.15,FCC,WROUGHT,FCC,90.0,,7.9,335.0,T,25.0,672.0,982.0,37.0,,,215,,,,10.1016/j.msea.2019.138181,2019,"The effects of substitution of Co with Ni on microstructure, mechanical properties, and age hardening of Co1-xCrFeNi1+xTi0.3 high-entropy alloys"
228,Cr0.5 Fe0.5 Ni1 Ti0.15,FCC,WROUGHT,FCC,324.0,,7.9,204.0,,,,,,,,215,,,,10.1016/j.msea.2019.138181,2019,"The effects of substitution of Co with Ni on microstructure, mechanical properties, and age hardening of Co1-xCrFeNi1+xTi0.3 high-entropy alloys"
229,Mo1 Nb1 Ta1 W1,BCC,POWDER,BCC,,,13.7,830.0,,,,,,,,258,,,,10.1016/j.msea.2019.138140,2019,Achieving ultra hard refractory multi-principal element alloys via mechanical alloying
229,Mo1 Nb1 Ta1 W1,BCC,ANNEAL,BCC,,,13.7,1450.0,,,,,,,,258,,,,10.1016/j.msea.2019.138140,2019,Achieving ultra hard refractory multi-principal element alloys via mechanical alloying
229,Mo1 Nb1 Ta1 W1,BCC,ANNEAL,BCC,,,13.7,1630.0,,,,,,,,258,,,,10.1016/j.msea.2019.138140,2019,Achieving ultra hard refractory multi-principal element alloys via mechanical alloying
229,Mo1 Nb1 Ta1 W1,BCC,ANNEAL,BCC,,,13.7,815.0,,,,,,,,258,,,,10.1016/j.msea.2019.138140,2019,Achieving ultra hard refractory multi-principal element alloys via mechanical alloying
229,Mo1 Nb1 Ta1 W1,,ANNEAL,other,,,13.7,700.0,,,,,,,,258,,,,10.1016/j.msea.2019.138140,2019,Achieving ultra hard refractory multi-principal element alloys via mechanical alloying
230,Nb1 Ta1 Ti1,BCC,WROUGHT,BCC,,,9.9,,C,20.0,573.0,,,,,136,100.0,5,,10.1016/j.actamat.2019.06.006,2019,Solid-solution strengthening in refractory high entropy alloys
230,Nb1 Ta1 Ti1,BCC,WROUGHT,BCC,,,9.9,,C,100.0,486.0,,,,,136,100.0,5,,10.1016/j.actamat.2019.06.006,2019,Solid-solution strengthening in refractory high entropy alloys
230,Nb1 Ta1 Ti1,BCC,WROUGHT,BCC,,,9.9,,C,200.0,378.0,,,,,136,100.0,5,,10.1016/j.actamat.2019.06.006,2019,Solid-solution strengthening in refractory high entropy alloys
230,Nb1 Ta1 Ti1,BCC,WROUGHT,BCC,,,9.9,,C,300.0,314.0,,,,,136,100.0,5,,10.1016/j.actamat.2019.06.006,2019,Solid-solution strengthening in refractory high entropy alloys
230,Nb1 Ta1 Ti1,BCC,WROUGHT,BCC,,,9.9,,C,400.0,232.0,,,,,136,100.0,5,,10.1016/j.actamat.2019.06.006,2019,Solid-solution strengthening in refractory high entropy alloys