IDENTIFIER: Reference ID,FORMULA,PROPERTY: Microstructure,PROPERTY: Processing method,PROPERTY: grain size ($\mu$m),PROPERTY: ROM Density (g/cm$^3$),PROPERTY: Exp. Density (g/cm$^3$),PROPERTY: HV,PROPERTY: Type of test,PROPERTY: Test temperature ($^\circ$C),PROPERTY: YS (MPa),PROPERTY: UTS (MPa),PROPERTY: Elongation (%),PROPERTY: Elongation plastic (%),PROPERTY: Young modulus (GPa),PROPERTY: O content (wppm),PROPERTY: N content (wppm),PROPERTY: C content (wppm),REFERENCE: doi,REFERENCE: year
192,Cr1 Mo1 Nb1 Ti1,BCC,ANNEAL,,,,,C,400.0,1115.0,,,,,260.0,5,,10.1016/j.actamat.2019.06.006,2019
192,Cr1 Mo1 Nb1 Ti1,BCC,ANNEAL,,,,,C,600.0,1062.0,,,,,260.0,5,,10.1016/j.actamat.2019.06.006,2019
192,Cr1 Mo1 Nb1 Ti1,BCC,ANNEAL,,,,,C,800.0,1058.0,,,,,260.0,5,,10.1016/j.actamat.2019.06.006,2019
192,Cr1 Mo1 Ta1 Ti1,,ANNEAL,,,,,C,20.0,1795.0,,,,,200.0,5,,10.1016/j.actamat.2019.06.006,2019
192,Cr1 Mo1 Ta1 Ti1,,ANNEAL,,,,,C,100.0,1506.0,,,,,200.0,5,,10.1016/j.actamat.2019.06.006,2019
192,Cr1 Mo1 Ta1 Ti1,,ANNEAL,,,,,C,200.0,1266.0,,,,,200.0,5,,10.1016/j.actamat.2019.06.006,2019
192,Cr1 Mo1 Ta1 Ti1,,ANNEAL,,,,,C,300.0,1183.0,,,,,200.0,5,,10.1016/j.actamat.2019.06.006,2019
192,Cr1 Mo1 Ta1 Ti1,,ANNEAL,,,,,C,400.0,1175.0,,,,,200.0,5,,10.1016/j.actamat.2019.06.006,2019
192,Cr1 Mo1 Ta1 Ti1,,ANNEAL,,,,,C,600.0,1162.0,,,,,200.0,5,,10.1016/j.actamat.2019.06.006,2019
192,Cr1 Mo1 Ta1 Ti1,,ANNEAL,,,,,C,800.0,1162.0,,,,,200.0,5,,10.1016/j.actamat.2019.06.006,2019
192,Cr1 Mo1 Ta1 Ti1,,ANNEAL,,,,,C,1000.0,1159.0,,,,,200.0,5,,10.1016/j.actamat.2019.06.006,2019
193,Hf0.25 Ti1 V0.5 Zr0.5,BCC,CAST,,,,338.3,C,25.0,1160.0,,50.0,,,,,,10.1007/s40195-019-00921-3,
193,Hf0.25 Ti1 V0.5 Zr0.5,BCC,CAST,,,,338.3,C,600.0,405.0,,50.0,,,,,,10.1007/s40195-019-00921-3,
193,Hf0.25 Ti1 V0.5 Zr0.5,BCC,CAST,,,,338.3,C,800.0,85.0,,50.0,,,,,,10.1007/s40195-019-00921-3,
193,Hf0.25 Nb0.125 Ti1 V0.5 Zr0.5,BCC,CAST,,,,332.4,C,25.0,1115.0,,50.0,,,,,,10.1007/s40195-019-00921-3,
193,Hf0.25 Nb0.25 Ti1 V0.5 Zr0.5,BCC,CAST,,,,322.5,C,25.0,1065.0,,50.0,,,,,,10.1007/s40195-019-00921-3,
193,Hf0.25 Nb0.25 Ti1 V0.5 Zr0.5,BCC,CAST,,,,322.5,C,600.0,718.0,,50.0,,,,,,10.1007/s40195-019-00921-3,
193,Hf0.25 Nb0.25 Ti1 V0.5 Zr0.5,BCC,CAST,,,,322.5,C,800.0,135.0,,50.0,,,,,,10.1007/s40195-019-00921-3,
193,Hf0.25 Nb0.375 Ti1 V0.5 Zr0.5,BCC,CAST,,,,318.9,C,25.0,1025.0,,50.0,,,,,,10.1007/s40195-019-00921-3,
193,Hf0.25 Nb0.5 Ti1 V0.5 Zr0.5,BCC,CAST,,,,310.4,C,25.0,980.0,,50.0,,,,,,10.1007/s40195-019-00921-3,
193,Hf0.25 Nb0.5 Ti1 V0.5 Zr0.5,BCC,CAST,,,,310.4,C,600.0,859.0,,50.0,,,,,,10.1007/s40195-019-00921-3,
193,Hf0.25 Nb0.5 Ti1 V0.5 Zr0.5,BCC,CAST,,,,310.4,C,800.0,195.0,,50.0,,,,,,10.1007/s40195-019-00921-3,
194,Cr1 Cu1 Fe1 Mn1 Ni1,,WROUGHT,,,,398.0,T,25.0,1190.0,1300.0,4.3,,,,,,10.1016/j.matchar.2019.05.043,2019
194,Cr1 Cu1 Fe1 Mn1 Ni1,,WROUGHT,1.4,,,367.0,T,25.0,1170.0,1270.0,10.7,,,,,,10.1016/j.matchar.2019.05.043,2019
194,Cr1 Cu1 Fe1 Mn1 Ni1,,WROUGHT,1.5,,,312.0,T,25.0,1030.0,1190.0,11.4,,,,,,10.1016/j.matchar.2019.05.043,2019
194,Cr1 Cu1 Fe1 Mn1 Ni1,,WROUGHT,1.9,,,271.0,T,25.0,970.0,1110.0,12.1,,,,,,10.1016/j.matchar.2019.05.043,2019
194,Cr1 Cu1 Fe1 Mn1 Ni1,,WROUGHT,2.2,,,183.0,T,25.0,850.0,960.0,14.3,,,,,,10.1016/j.matchar.2019.05.043,2019
194,Cr1 Cu1 Fe1 Mn1 Ni1,,WROUGHT,6.5,,,162.0,T,25.0,470.0,640.0,34.8,,,,,,10.1016/j.matchar.2019.05.043,2019
195,Co0.476 Cr0.476 Fe0.476 Nb0.095 Ni1,,CAST,,,,,T,25.0,170.0,537.0,32.0,,,,,,10.1016/j.matlet.2019.04.012,2019
195,Co0.476 Cr0.476 Fe0.476 Nb0.19 Ni1,,CAST,,,,,T,25.0,640.0,840.0,7.0,,,,,,10.1016/j.matlet.2019.04.012,2019
195,Co0.476 Cr0.476 Fe0.476 Nb0.095 Ni1,,ANNEAL,,,,,T,25.0,560.0,860.0,19.0,,,,,,10.1016/j.matlet.2019.04.012,2019
195,Co0.476 Cr0.476 Fe0.476 Nb0.19 Ni1,,ANNEAL,,,,,T,25.0,,,3.0,,,,,,10.1016/j.matlet.2019.04.012,2019
196,C0.053 Co1 Cr1 Fe1 Mn1 Ni1,,ANNEAL,,,,345.0,C,800.0,,,,,,,,,10.1007/s40195-019-00916-0,
196,C0.053 Co1 Cr1 Fe1 Mn1 Ni1,,ANNEAL,,,,285.0,C,1000.0,,,,,,,,,10.1007/s40195-019-00916-0,
197,Al1 Co1 Cr1 Fe1 Ni1,,POWDER,10.21,,,550.0,C,25.0,1221.1,,30.0,23.2,,,,,10.1016/j.matchar.2019.05.022,2019
197,Al1 Co1 Cr1 Fe1 Ni1,,POWDER,15.68,,,510.0,C,25.0,1186.7,,33.0,26.5,,,,,10.1016/j.matchar.2019.05.022,2019
197,Al1 Co1 Cr1 Fe1 Ni1,,POWDER,16.7,,,503.0,C,25.0,1112.9,,30.0,21.4,,,,,10.1016/j.matchar.2019.05.022,2019
198,Cr1 Mo1 Nb1 Ti1 W1,,POWDER,,,,,C,25.0,2500.0,,10.0,,,,,,10.1007/s11837-019-03432-9,
198,Cr1 Mo1 Nb1 Ti1 W1,,POWDER,,,,,C,25.0,1260.0,,4.8,,,,,,10.1007/s11837-019-03432-9,
198,Cr1 Mo1 Nb1 Ti1 W1,,POWDER,,,,,C,25.0,1630.0,,4.85,,,,,,10.1007/s11837-019-03432-9,
198,Cr1 Mo1 Nb1 Ti1 W1,,POWDER,,,,,C,25.0,2030.0,,4.3,,,,,,10.1007/s11837-019-03432-9,
198,Cr1 Mo1 Nb1 Ti1 W1,,POWDER,,,,,C,25.0,1920.0,,5.0,,,,,,10.1007/s11837-019-03432-9,
200,Al1 Co1 Cr1 Fe1 Ni1,,CAST,,,,,C,25.0,1380.0,,,,,,,,10.1088/2053-1591/ab2517,
200,Al1 Co1 Cr1 Fe1 Ni1,,POWDER,,,,,C,25.0,,,,,,,,,10.1088/2053-1591/ab2517,
200,Al1 Co1 Cr1 Fe1 Ni1,,POWDER,,,,,C,25.0,520.0,,,,,,,,10.1088/2053-1591/ab2517,
200,Al1 Co1 Cr1 Fe1 Ni1,,POWDER,,,,,C,25.0,1150.0,,,,,,,,10.1088/2053-1591/ab2517,
200,Al1 Co1 Cr1 Fe1 Ni1,,POWDER,,,,,C,25.0,1287.0,,,,,,,,10.1088/2053-1591/ab2517,
200,Al1 Co1 Cr1 Fe1 Ni1,,POWDER,,,,,C,25.0,1286.0,,,,,,,,10.1088/2053-1591/ab2517,
200,Al1 Co1 Cr1 Fe1 Ni1,,POWDER,,,,,C,25.0,1390.0,,,,,,,,10.1088/2053-1591/ab2517,
200,Al1 Co1 Cr1 Fe1 Ni1,,POWDER,,,,,C,25.0,1626.0,,,,,,,,10.1088/2053-1591/ab2517,
201,Cr1 Fe1 Mn1 Ni1,FCC,,,,,,,,,,,,,,,,10.1016/j.jallcom.2019.04.296,2019
202,Co0.25 Cr0.25 Fe1 Mn1,FCC,CAST,,,,,T,25.0,213.0,471.0,55.7,,,,,,10.1016/j.msea.2019.138039,msea
202,Co0.25 Cr0.25 Fe1 Mn1,FCC,CAST,,,,,T,25.0,393.0,634.0,26.5,,,,,,10.1016/j.msea.2019.138039,msea
202,Co0.25 Cr0.25 Fe1 Mn1,FCC,WROUGHT,,,,,T,25.0,792.0,1055.0,22.6,,,,,,10.1016/j.msea.2019.138039,msea
202,Co0.25 Cr0.25 Fe1 Mn1,FCC,WROUGHT,18.0,,,,T,25.0,559.0,1004.0,33.9,,,,,,10.1016/j.msea.2019.138039,msea
202,Co0.25 Cr0.25 Fe1 Mn1,FCC,WROUGHT,32.0,,,,T,25.0,512.0,978.0,55.3,,,,,,10.1016/j.msea.2019.138039,msea
202,Co0.25 Cr0.25 Fe1 Mn1,FCC,WROUGHT,63.0,,,,T,25.0,476.0,947.0,69.4,,,,,,10.1016/j.msea.2019.138039,msea
203,Co1 Cr1 Fe1 Mn1 Ni1,FCC,WROUGHT,,,,,T,25.0,353.0,635.0,,43,,,,,10.1016/j.jallcom.2019.04.121,2019
203,C0.041 Co1 Cr1 Fe1 Mn1 Nb0.041 Ni1,,WROUGHT,,,,,T,25.0,732.0,911.0,,32,,,,,10.1016/j.jallcom.2019.04.121,2019
204,Al0.5 Nb1 Ta0.5 Ti1 Zr1,,WROUGHT,,,,,C,25.0,1500.0,,6.0,,,,,,10.1016/j.matlet.2019.03.075,2019
204,Al0.5 Nb1 Ta0.5 Ti1 Zr1,BCC,POWDER,,,,,,,,,,,,,,,10.1016/j.matlet.2019.03.075,2019
204,Al0.5 Nb1 Ta0.5 Ti1 Zr1,,WROUGHT,,,,,C,25.0,1200.0,,8.0,,,,,,10.1016/j.matlet.2019.03.075,2019
204,Al0.5 Nb1 Ta0.5 Ti1 Zr1,,WROUGHT,,,,,C,25.0,2100.0,,12.0,,,,,,10.1016/j.matlet.2019.03.075,2019
204,Al0.5 Nb1 Ta0.5 Ti1 Zr1,,WROUGHT,,,,,C,25.0,1740.0,,20.0,,,,,,10.1016/j.matlet.2019.03.075,2019
204,Al0.5 Nb1 Ta0.5 Ti1 Zr1,,WROUGHT,,,,,C,25.0,1630.0,,12.0,,,,,,10.1016/j.matlet.2019.03.075,2019
205,Mo1 Nb1 Ta1 W1,BCC,POWDER,,,,504.5,C,25.0,1217.0,,7.5,3.8,,,,,10.1007/s10853-019-03567-9,
205,Mo1 Nb1 Si0.25 Ta1 W1,,POWDER,,,,567.0,C,25.0,1826.0,,16.5,10.5,,,,,10.1007/s10853-019-03567-9,
205,Mo1 Nb1 Si0.5 Ta1 W1,,POWDER,,,,697.0,C,25.0,1883.0,,11.0,5.8,,,,,10.1007/s10853-019-03567-9,
205,Mo1 Nb1 Si0.75 Ta1 W1,,POWDER,,,,682.6,C,25.0,2483.0,,6.2,1.6,,,,,10.1007/s10853-019-03567-9,
205,Mo1 Nb1 Ta1 W1,BCC,POWDER,,,,420.0,,200.0,,,,,,,,,10.1007/s10853-019-03567-9,
205,Mo1 Nb1 Si0.25 Ta1 W1,,POWDER,,,,425.0,,200.0,,,,,,,,,10.1007/s10853-019-03567-9,
205,Mo1 Nb1 Si0.5 Ta1 W1,,POWDER,,,,535.0,,200.0,,,,,,,,,10.1007/s10853-019-03567-9,
205,Mo1 Nb1 Si0.75 Ta1 W1,,POWDER,,,,640.0,,200.0,,,,,,,,,10.1007/s10853-019-03567-9,
205,Mo1 Nb1 Ta1 W1,BCC,POWDER,,,,425.0,,400.0,,,,,,,,,10.1007/s10853-019-03567-9,
205,Mo1 Nb1 Si0.25 Ta1 W1,,POWDER,,,,420.0,,400.0,,,,,,,,,10.1007/s10853-019-03567-9,
205,Mo1 Nb1 Si0.5 Ta1 W1,,POWDER,,,,560.0,,400.0,,,,,,,,,10.1007/s10853-019-03567-9,
205,Mo1 Nb1 Si0.75 Ta1 W1,,POWDER,,,,600.0,,400.0,,,,,,,,,10.1007/s10853-019-03567-9,
205,Mo1 Nb1 Ta1 W1,BCC,POWDER,,,,340.0,,600.0,,,,,,,,,10.1007/s10853-019-03567-9,
205,Mo1 Nb1 Si0.25 Ta1 W1,,POWDER,,,,425.0,,600.0,,,,,,,,,10.1007/s10853-019-03567-9,
205,Mo1 Nb1 Si0.5 Ta1 W1,,POWDER,,,,540.0,,600.0,,,,,,,,,10.1007/s10853-019-03567-9,
205,Mo1 Nb1 Si0.75 Ta1 W1,,POWDER,,,,650.0,,600.0,,,,,,,,,10.1007/s10853-019-03567-9,
205,Mo1 Nb1 Ta1 W1,BCC,POWDER,,,,335.5,,800.0,,,,,,,,,10.1007/s10853-019-03567-9,
205,Mo1 Nb1 Si0.25 Ta1 W1,,POWDER,,,,399.2,,800.0,,,,,,,,,10.1007/s10853-019-03567-9,
205,Mo1 Nb1 Si0.5 Ta1 W1,,POWDER,,,,550.5,,800.0,,,,,,,,,10.1007/s10853-019-03567-9,
205,Mo1 Nb1 Si0.75 Ta1 W1,,POWDER,,,,597.3,,800.0,,,,,,,,,10.1007/s10853-019-03567-9,
205,Mo1 Nb1 Si0.75 Ta1 W1,,POWDER,,,,,C,1200.0,960.0,,22.7,,,,,,10.1007/s10853-019-03567-9,
206,Co1 Cr1 Fe1 Mn1 Ni1,FCC,WROUGHT,,,,,T,25.0,1199.26,1335.35,4.37,,,,,,10.1007/s11661-019-05231-y,
206,Co1 Cr1 Fe1 Mn1 Ni1,FCC,WROUGHT,,,,,T,25.0,1269.23,1366.3,1.16,,,,,,10.1007/s11661-019-05231-y,
206,Co1 Cr1 Fe1 Mn1 Ni1,FCC,WROUGHT,,,,,T,25.0,1371.21,1402.83,1.58,,,,,,10.1007/s11661-019-05231-y,
206,Co1 Cr1 Fe1 Mn1 Ni1,FCC,WROUGHT,0.166,,,,T,25.0,1362.74,1471.05,3.15,,,,,,10.1007/s11661-019-05231-y,
206,Co1 Cr1 Fe1 Mn1 Ni1,FCC,WROUGHT,0.248,,,,T,25.0,1241.81,1325.25,4.31,,,,,,10.1007/s11661-019-05231-y,
206,Co1 Cr1 Fe1 Mn1 Ni1,FCC,WROUGHT,0.46799999999999997,,,,T,25.0,930.3,1021.32,19.01,,,,,,10.1007/s11661-019-05231-y,
206,Co1 Cr1 Fe1 Mn1 Ni1,FCC,WROUGHT,1.79,,,,T,25.0,729.21,901.74,26.3,,,,,,10.1007/s11661-019-05231-y,
206,Co1 Cr1 Fe1 Mn1 Ni1,FCC,WROUGHT,4.57,,,,T,25.0,494.82,735.6,38.7,,,,,,10.1007/s11661-019-05231-y,
206,Co1 Cr1 Fe1 Mn1 Ni1,FCC,WROUGHT,13.45,,,,T,25.0,366.88,673.25,42.55,,,,,,10.1007/s11661-019-05231-y,
206,Co1 Cr1 Fe1 Mn1 Ni1,FCC,WROUGHT,22.37,,,,T,25.0,290.65,618.51,43.15,,,,,,10.1007/s11661-019-05231-y,
206,Co1 Cr1 Fe1 Mn1 Ni1,FCC,WROUGHT,30.6,,,,T,25.0,258.76,598.75,45.05,,,,,,10.1007/s11661-019-05231-y,
207,C0.1 Co1 Cr1 Fe1 Mn1 Ni1 Ti0.1,,POWDER,,,7.5,457.0,C,25.0,1616.0,,,4.5 ,,,,,10.1016/j.vacuum.2019.04.043,2019
207,C0.1 Co1 Cr1 Fe1 Mn1 Ni1 Ti0.1,,POWDER,,,7.64,461.0,C,25.0,1652.0,,,10 ,,,,,10.1016/j.vacuum.2019.04.043,2019
207,C0.1 Co1 Cr1 Fe1 Mn1 Ni1 Ti0.1,,POWDER,,,7.66,428.0,C,25.0,1490.0,,,11.4 ,,,,,10.1016/j.vacuum.2019.04.043,2019
207,C0.1 Co1 Cr1 Fe1 Mn1 Ni1 Ti0.1,,POWDER,,,7.69,378.0,C,25.0,1194.0,,,20.1 ,,,,,10.1016/j.vacuum.2019.04.043,2019
208,Co1 Cr1 Fe1 Ni1,FCC,,,,,,,,,,,,,,,,10.1016/j.msea.2019.05.056,2019
208,Al0.5 Co1 Cr1 Fe1 Ni1,,,,,,250.0,,,,,,,,,,,10.1016/j.msea.2019.05.056,2019
208,Al1 Co1 Cr1 Fe1 Ni1,BCC,,,,,500.0,,,,,,,,,,,10.1016/j.msea.2019.05.056,2019
208,Al1 Co0.5 Cr0.5 Fe0.5 Ni0.5,BCC,,,,,733.0,,,,,,,,,,,10.1016/j.msea.2019.05.056,2019
208,Co1 Cr1 Cu1 Fe1 Ni1,FCC,,,,,166.0,T,25.0,230.0,,,,,,,,10.1016/j.msea.2019.05.056,2019
208,Al0.5 Co1 Cr1 Cu1 Fe1 Ni1,FCC,,,,,200.0,,,,,,,,,,,10.1016/j.msea.2019.05.056,2019
208,Al1 Co1 Cr1 Cu1 Fe1 Ni1,,,,,,350.0,,,,,,,,,,,10.1016/j.msea.2019.05.056,2019
208,Al1 Co1 Cr1 Fe1 Ni1,BCC,,,,,,C,25.0,1500.0,,,,,,,,10.1016/j.msea.2019.05.056,2019
208,Al1 Co1 Cr1 Fe1 Nb0.1 Ni1,BCC,,,,,520.0,C,25.0,1373.0,,,,,,,,10.1016/j.msea.2019.05.056,2019
208,Al1 Co1 Cr1 Fe1 Nb0.25 Ni1,,,,,,569.0,C,25.0,1641.0,,,,,,,,10.1016/j.msea.2019.05.056,2019
208,Al1 Co1 Cr1 Fe1 Nb0.5 Ni1,,,,,,668.0,C,25.0,1959.0,,,,,,,,10.1016/j.msea.2019.05.056,2019
208,Al1 Co1 Cr1 Fe1 Nb0.75 Ni1,,,,,,747.0,C,25.0,2473.0,,,,,,,,10.1016/j.msea.2019.05.056,2019
208,Al0.5 Co1 Fe1 Ni1 Ti0.5,FCC,,,,,733.0,,,,,,,,,,,10.1016/j.msea.2019.05.056,2019
208,Al0.5 Co1 Cr1 Fe1 Ni1 Ti0.5,,,,,,640.0,,,,,,,,,,,10.1016/j.msea.2019.05.056,2019
208,Al0.5 Co1 Cr1 Fe1 Mn1 Ni1,,,,,,,,,,,,,,,,,10.1016/j.msea.2019.05.056,2019
208,Al0.5 Co1 Cr1 Fe1 Mn1 Ni1 Ta0.2,,,,,,385.0,,,,,,,,,,,10.1016/j.msea.2019.05.056,2019
208,Al0.5 Co1 Cr1 Fe1 Mn1 Ni1 Ta0.4,,,,,,486.0,,,,,,,,,,,10.1016/j.msea.2019.05.056,2019
208,Al0.55 Co1 Cr1 Fe1 Mn1 Ni1 Ta0.6,,,,,,570.0,,,,,,,,,,,10.1016/j.msea.2019.05.056,2019
208,Co1 Cr1 Fe1 Mn1 Ni1,,,,,,,,,,,,,,,,,10.1016/j.msea.2019.05.056,2019
208,Co1 Cr1 Fe1 Mn1 Ni1 Ta0.2,,,,,,200.0,,,,,,,,,,,10.1016/j.msea.2019.05.056,2019
208,Co1 Cr1 Fe1 Mn1 Ni1 Ta0.4,,,,,,290.0,,,,,,,,,,,10.1016/j.msea.2019.05.056,2019
208,Co1 Cr1 Fe1 Mn1 Ni1 Ta0.6,,,,,,345.0,,,,,,,,,,,10.1016/j.msea.2019.05.056,2019
208,Al0.5 Co1 Cr1 Cu1 Fe1 Ni1,FCC,,,,,220.0,,,,,,,,,,,10.1016/j.msea.2019.05.056,2019
208,Al0.5 Co1 Cr1 Cu1 Fe1 Ni1 V0.5,,,,,,340.0,,,,,,,,,,,10.1016/j.msea.2019.05.056,2019
208,Al0.5 Co1 Cr1 Cu1 Fe1 Ni1 V1,,,,,,640.0,,,,,,,,,,,10.1016/j.msea.2019.05.056,2019
208,Al0.333 Co0.667 Cr0.667 Cu0.667 Fe0.667 Ni0.667 V1,,,,,,576.0,,,,,,,,,,,10.1016/j.msea.2019.05.056,2019
208,Al0.25 Co0.5 Cr0.5 Cu0.5 Fe0.5 Ni0.5 V1,,,,,,550.0,,,,,,,,,,,10.1016/j.msea.2019.05.056,2019
208,Al1 Co1 Cr1 Cu1 Fe1 Mn1 Ni1,,,,,,,C,25.0,1005.0,,,,,,,,10.1016/j.msea.2019.05.056,2019
208,Al1 Co1 Cr1 Cu1 Fe1 Ni1 Ti1,,,,,,,C,25.0,1243.0,,,,,,,,10.1016/j.msea.2019.05.056,2019
208,Al0.3 Co1 Cr1 Fe1 Ni1,FCC,,,,,160.0,,,,,,,,,,,10.1016/j.msea.2019.05.056,2019
208,Al0.3 Co1 Cr1 Fe1 Mo0.1 Ni1,FCC,,,,,200.0,,,,,,,,,,,10.1016/j.msea.2019.05.056,2019
208,Al0.143 Cr0.343 Fe1 Mn0.8 Ni0.571,FCC,CAST,,,,,T,25.0,280.0,556.0,48.0,48.2,,,,,10.1016/j.msea.2019.05.056,2019
208,Al0.286 Cr0.343 Fe1 Mn0.657 Ni0.571,FCC,WROUGHT,,,,,T,25.0,320.0,625.0,42.2,42.45,,,,,10.1016/j.msea.2019.05.056,2019
208,Al0.143 Cr0.343 Fe1 Mn0.8 Ni0.571,FCC,CAST,,,,,T,25.0,1253.0,1392.0,6.78,8.2,,,,,10.1016/j.msea.2019.05.056,2019
208,Al0.286 Cr0.343 Fe1 Mn0.657 Ni0.571,FCC,WROUGHT,,,,,T,25.0,1400.0,1500.0,5.83,7.85,,,,,10.1016/j.msea.2019.05.056,2019
209,Co1 Cu1 Fe1 Mn1 Ni1,FCC,CAST,,,,,,800.0,,,,,,,,,10.1016/j.msea.2019.04.096,2019
209,Co1 Cu1 Fe1 Mn1 Ni1,FCC,CAST,,,,,,900.0,,,,,,,,,10.1016/j.msea.2019.04.096,2019
209,Co1 Cu1 Fe1 Mn1 Ni1,FCC,CAST,,,,,,100.0,,,,,,,,,10.1016/j.msea.2019.04.096,2019
210,Co1 Cr1 Fe1 Mo0.15 Ni1,FCC,CAST,,,,,T,25.0,489.0,895.0,,53.6 ,,,,,10.1016/j.msea.2019.05.078,2019
210,Co1 Cr1 Fe1 Mo0.15 Ni1,,WROUGHT,,,,,T,25.0,873.0,,,23.4 ,,,,,10.1016/j.msea.2019.05.078,2019
210,Co1 Cr1 Fe1 Mo0.15 Ni1,,WROUGHT,,,,,T,25.0,952.0,1122.0,,14.2 ,,,,,10.1016/j.msea.2019.05.078,2019
210,Co1 Cr1 Fe1 Mo0.15 Ni1,FCC,WROUGHT,,,,,T,25.0,1136.0,1245.0,,8.7 ,,,,,10.1016/j.msea.2019.05.078,2019
210,Co1 Cr1 Fe1 Mo0.15 Ni1,FCC,WROUGHT,,,,,T,25.0,1301.0,1493.0,,7.2 ,,,,,10.1016/j.msea.2019.05.078,2019
210,Co1 Cr1 Fe1 Mo0.15 Ni1,,WROUGHT,,,,,T,25.0,1311.0,1421.0,,5.9 ,,,,,10.1016/j.msea.2019.05.078,2019
210,Co1 Cr1 Fe1 Mo0.15 Ni1,,WROUGHT,,,,,T,25.0,1273.0,1458.0,,5.5 ,,,,,10.1016/j.msea.2019.05.078,2019
211,Co0.139 Cr0.446 Cu0.99 Ni1 Si0.277,,WROUGHT,,,,142.5,T,25.0,777.0,810.0,3.4,,,,,,10.1016/j.msea.2019.05.003,2019
211,Co0.139 Cr0.446 Cu0.99 Ni1 Si0.277,,WROUGHT,,,,147.4,,,,,,,,,,,10.1016/j.msea.2019.05.003,2019
211,Co0.139 Cr0.446 Cu0.99 Ni1 Si0.277,,WROUGHT,,,,155.2,,,,,,,,,,,10.1016/j.msea.2019.05.003,2019
212,Al1 Co1 Cr0.091 Nb0.727 W0.212,,CAST,,,,1084.0,,25.0,,,,,,,,,10.1038/s41467-019-10533-1,
212,Co1 Cr0.917 Ni1 Ta0.5 Ti0.75,,CAST,,,,1011.0,,25.0,,,,,,,,,10.1038/s41467-019-10533-1,
212,Al0.947 Co0.158 Mo1 Ni0.289 W0.237,,CAST,,,,725.0,,25.0,,,,,,,,,10.1038/s41467-019-10533-1,
212,Co0.043 Nb0.638 Ni1 Ta0.255 Ti0.191,,CAST,,,,815.0,,25.0,,,,,,,,,10.1038/s41467-019-10533-1,
212,Co0.273 Cr0.477 Nb0.477 Ni0.045 Ti1,,CAST,,,,422.0,,25.0,,,,,,,,,10.1038/s41467-019-10533-1,
212,Co1 Cr0.487 Nb0.231 Ta0.026 Ti0.821,,CAST,,,,856.0,,25.0,,,,,,,,,10.1038/s41467-019-10533-1,
212,Co0.564 Nb0.795 Ta0.103 Ti1 W0.103,,CAST,,,,277.0,,25.0,,,,,,,,,10.1038/s41467-019-10533-1,
213,Al1 Co1 Cu1 Fe1 Ni0.5,,CAST,,,,430.9,C,25.0,929.0,,13.7,,,,,,10.1016/j.jmst.2018.12.014,2018
213,Al1 Co1 Cu1 Fe1 Ni0.8,,CAST,,,,420.0,C,25.0,1021.0,,12.3,,,,,,10.1016/j.jmst.2018.12.014,2018
213,Al1 Co1 Cu1 Fe1 Ni1,,CAST,,,,391.4,C,25.0,994.0,,24.5,,,,,,10.1016/j.jmst.2018.12.014,2018
213,Al0.667 Co0.667 Cu0.667 Fe0.667 Ni1,,CAST,,,,323.8,C,25.0,680.0,,35.9,,,,,,10.1016/j.jmst.2018.12.014,2018
213,Al0.5 Co0.5 Cu0.5 Fe0.5 Ni1,,CAST,,,,299.2,C,25.0,544.0,,,,,,,,10.1016/j.jmst.2018.12.014,2018
213,Al0.333 Co0.333 Cu0.333 Fe0.333 Ni1,FCC,CAST,,,,279.6,C,25.0,268.0,,,,,,,,10.1016/j.jmst.2018.12.014,2018
101,Al0.5 Cr1 Fe1 Mn1 Ni1,,CAST,,,,353.0,C,25.0,1091.0,,50.0,,,,,,10.1016/j.msea.2019.04.104,2019
101,Al0.6 Cr1 Fe1 Mn1 Ni1,,CAST,,,,361.0,C,25.0,1130.0,,53.0,,,,,,10.1016/j.msea.2019.04.104,2019
101,Al0.7 Cr1 Fe1 Mn1 Ni1,,CAST,,,,375.0,C,25.0,1170.0,,55.0,,,,,,10.1016/j.msea.2019.04.104,2019
101,Al0.8 Cr1 Fe1 Mn1 Ni1,,CAST,,,,386.0,C,25.0,1200.0,,55.0,,,,,,10.1016/j.msea.2019.04.104,2019
102,Co1 Cr0.2 Fe1 Ni1 Si0.2,FCC,CAST,,,,130.1,T,25.0,225.0,732.0,61.0,,,,,,10.1016/j.jmmm.2019.01.096,2019
102,Co1 Cr0.2 Fe1 Ni1 Si0.2,FCC,WROUGHT,,,,318.2,T,25.0,705.0,1070.0,10.0,,,,,,10.1016/j.jmmm.2019.01.096,2019
102,Co1 Cr0.2 Fe1 Ni1 Si0.2,FCC,WROUGHT,,,,153.8,T,25.0,320.0,920.0,60.0,,,,,,10.1016/j.jmmm.2019.01.096,2019
103,Al1 Cu0.077 Fe0.077 Mg0.077 Si0.231 Zn0.077,FCC,CAST,,,3.08,,C,25.0,422.0,,1.0,,88.7,,,,10.1038/s41598-019-43329-w,
103,Al1 Cu0.077 Mg0.077 Ni0.077 Si0.231 Zn0.077,FCC,CAST,,,3.15,,C,25.0,534.0,,1.0,,107.8,,,,10.1038/s41598-019-43329-w,
103,Al1 Cr0.077 Cu0.077 Mg0.077 Si0.231 Zn0.077,FCC,CAST,,,3.06,,C,25.0,490.0,,6.0,,78.4,,,,10.1038/s41598-019-43329-w,
103,Al1 Cu0.077 Mg0.077 Mn0.077 Si0.231 Zn0.077,FCC,CAST,,,2.98,,C,25.0,622.0,,2.0,,114.1,,,,10.1038/s41598-019-43329-w,
103,Al1 Cu0.077 Mg0.077 Si0.231 Zn0.077 Zr0.077,,CAST,,,3.06,,C,25.0,565.0,,4.0,,105.1,,,,10.1038/s41598-019-43329-w,
104,Co1 Cr1 Fe1 Mo0.2 Ni1,FCC,CAST,,,,,T,25.0,400.0,780.0,53.0,,,,,,10.3390/e21050448,
104,Co1 Cr1 Fe1 Mo0.2 Ni1,FCC,ANNEAL,,,,,T,25.0,,838.0,43.0,,,,,,10.3390/e21050448,
104,Co1 Cr1 Fe1 Mo0.2 Ni1,FCC,ANNEAL,,,,,T,25.0,,899.0,31.0,,,,,,10.3390/e21050448,
104,Co1 Cr1 Fe1 Mo0.2 Ni1,FCC,ANNEAL,,,,,T,25.0,,902.0,29.0,,,,,,10.3390/e21050448,
104,Co1 Cr1 Fe1 Mo0.2 Ni1,FCC,ANNEAL,,,,,T,25.0,,811.0,52.0,,,,,,10.3390/e21050448,
104,Co1 Cr1 Fe1 Mo0.2 Ni1,FCC,ANNEAL,,,,,T,25.0,,790.0,49.0,,,,,,10.3390/e21050448,
104,Co1 Cr1 Fe1 Mo0.2 Ni1,FCC,ANNEAL,,,,,T,25.0,,799.0,47.0,,,,,,10.3390/e21050448,
104,Co1 Cr1 Fe1 Mo0.2 Ni1,FCC,ANNEAL,,,,,T,25.0,,802.0,37.0,,,,,,10.3390/e21050448,
104,Co1 Cr1 Fe1 Mo0.2 Ni1,FCC,ANNEAL,,,,,T,25.0,,823.0,36.0,,,,,,10.3390/e21050448,
104,Co1 Cr1 Fe1 Mo0.2 Ni1,FCC,ANNEAL,,,,,T,25.0,,849.0,34.0,,,,,,10.3390/e21050448,
104,Co1 Cr1 Fe1 Mo0.2 Ni1,FCC,ANNEAL,,,,,T,25.0,,895.0,32.0,,,,,,10.3390/e21050448,
105,Al0.569 Ca0.143 Li0.857 Mg1 Si0.286 Y0.003,,CAST,,,1.7,,C,25.0,556.0,,3.0,,,,,,10.3390/ma12071136,
105,Al0.429 Ca0.286 Li1 Mg1 Si0.143,,CAST,,,1.57,,C,25.0,418.0,,13.0,,,,,,10.3390/ma12071136,
105,Al0.312 Ca0.021 Li0.792 Mg1 Si0.021,,CAST,,,1.52,,C,25.0,360.0,,9.0,,,,,,10.3390/ma12071136,
105,Al0.333 Ca0.011 Li0.844 Mg1 Si0.033,,CAST,,,1.5,,C,25.0,342.0,,44.0,,,,,,10.3390/ma12071136,
105,Al0.333 Ca0.011 Li0.867 Mg1 Si0.011,,CAST,,,1.46,,C,25.0,300.0,,63.0,,,,,,10.3390/ma12071136,
106,Co1 Cr1 Fe1 Ni1 Pd1,FCC,CAST,,,,295.0,,,,,,,,,,,10.3390/e21030288,
106,Co1 Cr1 Fe1 Mn0.2 Ni1 Pd1,,CAST,,,,470.0,C,25.0,650.0,,50.0,,,,,,10.3390/e21030288,
106,Co1 Cr1 Fe1 Mn0.4 Ni1 Pd1,,CAST,,,,380.0,C,25.0,650.0,,46.0,,,,,,10.3390/e21030288,
106,Co1 Cr1 Fe1 Mn0.6 Ni1 Pd1,,CAST,,,,180.0,C,25.0,650.0,,42.0,,,,,,10.3390/e21030288,
106,Co1 Cr1 Fe1 Mn0.8 Ni1 Pd1,,CAST,,,,160.0,C,25.0,650.0,,35.0,,,,,,10.3390/e21030288,
108,Al0.3 Co1 Cr1 Fe1 Mn1 Ni1,,POWDER,,,,,,,,,,,,,,,10.1016/j.scriptamat.2018.12.021,2018
109,Cr1 Fe1 Ni1 Ti0.2,,CAST,,,,362.2,C,25.0,2297.94,,5.8,,,,,,10.1557/jmr.2019.40,2019
109,Cr1 Fe1 Ni1 Ti0.3,,CAST,,,,510.3,C,25.0,2364.63,,,,,,,,10.1557/jmr.2019.40,2019
109,Cr1 Fe1 Ni1 Ti0.4,BCC,CAST,,,,600.3,C,25.0,2475.41,,6.5,,,,,,10.1557/jmr.2019.40,2019
109,Cr1 Fe1 Ni1 Ti0.5,BCC,CAST,,,,709.6,C,25.0,2380.79,,,,,,,,10.1557/jmr.2019.40,2019
109,Cr1 Fe1 Ni1 Ti0.6,BCC,CAST,,,,718.2,C,25.0,1923.15,,,,,,,,10.1557/jmr.2019.40,2019
110,Al1 Cr1 Cu1 Fe1 Mn1,,POWDER,,,,633.0,C,25.0,1010.0,,,,,,,,10.1557/jmr.2019.18,2019
110,Al1 Cr1 Cu1 Fe1 Mn1 W0.05,,POWDER,,,,680.0,C,25.0,1120.0,,,,,,,,10.1557/jmr.2019.18,2019