IDENTIFIER: Reference ID,FORMULA,PROPERTY: Microstructure,PROPERTY: Processing method,PROPERTY: BCC/FCC/other,PROPERTY: grain size ($\mu$m),PROPERTY: Exp. Density (g/cm$^3$),PROPERTY: Calculated Density (g/cm$^3$),PROPERTY: HV,PROPERTY: Type of test,PROPERTY: Test temperature ($^\circ$C),PROPERTY: YS (MPa),PROPERTY: UTS (MPa),PROPERTY: Elongation (%),PROPERTY: Elongation plastic (%),PROPERTY: Exp. Young modulus (GPa),PROPERTY: Calculated Young modulus (GPa),PROPERTY: O content (wppm),PROPERTY: N content (wppm),PROPERTY: C content (wppm),REFERENCE: doi,REFERENCE: year,REFERENCE: title
24,Al0.278 Co0.556 Cr0.556 Cu0.556 Fe0.556 Ni0.556 Ti1,FCC+BCC+B2+Sec.,CAST,other,,,6.6,667.0,,25.0,,,,,,,,,,10.2320/matertrans.47.1395,2006,Microstructure and Properties of AlSUB0.5/SUBCoCrCuFeNiTiISUBx/SUB/I (Ix/I=0&ndash;2.0) High-Entropy Alloys
24,Al0.25 Co0.5 Cr0.5 Cu0.5 Fe0.5 Ni0.5 Ti1,FCC+BCC+B2+Sec.,CAST,other,,,6.5,696.0,,25.0,,,,,,,,,,10.2320/matertrans.47.1395,2006,Microstructure and Properties of AlSUB0.5/SUBCoCrCuFeNiTiISUBx/SUB/I (Ix/I=0&ndash;2.0) High-Entropy Alloys
25,Al0.5 Co1 Cr1 Cu1 Fe1 Ni1,FCC,CAST,FCC,,,7.6,215.0,,25.0,,,,,,189,,,,10.1007/s11661-006-0081-3,2006,"Effect of vanadium addition on the microstructure, hardness, and wear resistance of Al0.5CoCrCuFeNi high-entropy alloy"
25,Al0.5 Co1 Cr1 Cu1 Fe1 Ni1 V0.2,FCC,CAST,FCC,,,7.6,204.0,,25.0,,,,,,186,,,,10.1007/s11661-006-0081-3,2006,"Effect of vanadium addition on the microstructure, hardness, and wear resistance of Al0.5CoCrCuFeNi high-entropy alloy"
25,Al0.5 Co1 Cr1 Cu1 Fe1 Ni1 V0.4,FCC+BCC,CAST,other,,,7.5,231.0,,25.0,,,,,,,,,,10.1007/s11661-006-0081-3,2006,"Effect of vanadium addition on the microstructure, hardness, and wear resistance of Al0.5CoCrCuFeNi high-entropy alloy"
25,Al0.5 Co1 Cr1 Cu1 Fe1 Ni1 V0.6,FCC+BCC+Sec.,CAST,other,,,7.5,328.0,,25.0,,,,,,,,,,10.1007/s11661-006-0081-3,2006,"Effect of vanadium addition on the microstructure, hardness, and wear resistance of Al0.5CoCrCuFeNi high-entropy alloy"
25,Al0.5 Co1 Cr1 Cu1 Fe1 Ni1 V0.8,FCC+BCC+Sec.,CAST,other,,,7.4,447.0,,25.0,,,,,,,,,,10.1007/s11661-006-0081-3,2006,"Effect of vanadium addition on the microstructure, hardness, and wear resistance of Al0.5CoCrCuFeNi high-entropy alloy"
25,Al0.5 Co1 Cr1 Cu1 Fe1 Ni1 V1,FCC+BCC+Sec.,CAST,other,,,7.4,639.0,,25.0,,,,,,,,,,10.1007/s11661-006-0081-3,2006,"Effect of vanadium addition on the microstructure, hardness, and wear resistance of Al0.5CoCrCuFeNi high-entropy alloy"
25,Al0.417 Co0.833 Cr0.833 Cu0.833 Fe0.833 Ni0.833 V1,BCC,CAST,BCC,,,7.3,579.0,,25.0,,,,,,177,,,,10.1007/s11661-006-0081-3,2006,"Effect of vanadium addition on the microstructure, hardness, and wear resistance of Al0.5CoCrCuFeNi high-entropy alloy"
25,Al0.357 Co0.714 Cr0.714 Cu0.714 Fe0.714 Ni0.714 V1,BCC,CAST,BCC,,,7.3,577.0,,25.0,,,,,,175,,,,10.1007/s11661-006-0081-3,2006,"Effect of vanadium addition on the microstructure, hardness, and wear resistance of Al0.5CoCrCuFeNi high-entropy alloy"
25,Al0.312 Co0.625 Cr0.625 Cu0.625 Fe0.625 Ni0.625 V1,BCC,CAST,BCC,,,7.2,594.0,,25.0,,,,,,174,,,,10.1007/s11661-006-0081-3,2006,"Effect of vanadium addition on the microstructure, hardness, and wear resistance of Al0.5CoCrCuFeNi high-entropy alloy"
25,Al0.278 Co0.556 Cr0.556 Cu0.556 Fe0.556 Ni0.556 V1,BCC,CAST,BCC,,,7.2,597.0,,25.0,,,,,,172,,,,10.1007/s11661-006-0081-3,2006,"Effect of vanadium addition on the microstructure, hardness, and wear resistance of Al0.5CoCrCuFeNi high-entropy alloy"
25,Al0.25 Co0.5 Cr0.5 Cu0.5 Fe0.5 Ni0.5 V1,BCC,CAST,BCC,,,7.2,587.0,,25.0,,,,,,171,,,,10.1007/s11661-006-0081-3,2006,"Effect of vanadium addition on the microstructure, hardness, and wear resistance of Al0.5CoCrCuFeNi high-entropy alloy"
26,Al1 Co1 Cr1 Cu1 Fe1 Ni1,FCC+BCC,CAST,other,,,7.1,472.0,,25.0,,,,,,,,,,10.1016/j.msea.2012.07.003,2012,Effect of elemental interaction on microstructure and mechanical properties of FeCoNiCuAl alloys
26,Al1 Co1 Cu1 Fe1 Nd1 Ni1,Other,CAST,other,,,7.0,578.0,,25.0,,,,,,,,,,10.1016/j.msea.2012.07.003,2012,Effect of elemental interaction on microstructure and mechanical properties of FeCoNiCuAl alloys
26,Al1 Co1 Cu1 Fe1 Ni1,FCC+BCC,CAST,other,,,7.0,536.0,,25.0,,,,,,,,,,10.1016/j.msea.2012.07.003,2012,Effect of elemental interaction on microstructure and mechanical properties of FeCoNiCuAl alloys
26,Al1 Co1 Cu1 Fe1 Ni1 Si1,FCC+BCC,CAST,other,,,5.9,682.0,,25.0,,,,,,,,,,10.1016/j.msea.2012.07.003,2012,Effect of elemental interaction on microstructure and mechanical properties of FeCoNiCuAl alloys
26,Al1 Co1 Cu1 Fe1 Ni1 Ti1,FCC+BCC,CAST,other,,,6.5,626.0,,25.0,,,,,,,,,,10.1016/j.msea.2012.07.003,2012,Effect of elemental interaction on microstructure and mechanical properties of FeCoNiCuAl alloys
26,Al1 Co1 Cu1 Fe1 Ni1 Zr1,FCC+BCC+Sec.,CAST,other,,,6.9,472.0,,25.0,,,,,,,,,,10.1016/j.msea.2012.07.003,2012,Effect of elemental interaction on microstructure and mechanical properties of FeCoNiCuAl alloys
28,Al1 Co1 Cr1 Cu1 Fe1 Mn1 Ni1,FCC+BCC+Sec.,CAST,other,,,7.1,,C,25.0,1005.0,,15.0,,,,,,,10.1016/j.msea.2008.08.025,2008,"Effects of Mn, Ti and V on the microstructure and properties of AlCrFeCoNiCu high entropy alloy"
28,Al1 Co1 Cr1 Cu1 Fe1 Ni1,FCC+BCC,CAST,other,,,7.1,,C,25.0,1303.0,,24.0,,,,,,,10.1016/j.msea.2008.08.025,2008,"Effects of Mn, Ti and V on the microstructure and properties of AlCrFeCoNiCu high entropy alloy"
28,Al1 Co1 Cr1 Cu1 Fe1 Ni1 Ti1,FCC+BCC+BCC,CAST,other,,,6.6,,C,25.0,1234.0,,9.0,,,,,,,10.1016/j.msea.2008.08.025,2008,"Effects of Mn, Ti and V on the microstructure and properties of AlCrFeCoNiCu high entropy alloy"
28,Al1 Co1 Cr1 Cu1 Fe1 Ni1 V1,FCC+BCC,CAST,other,,,6.9,,C,25.0,1469.0,,16.0,,,,,,,10.1016/j.msea.2008.08.025,2008,"Effects of Mn, Ti and V on the microstructure and properties of AlCrFeCoNiCu high entropy alloy"
29,Al1 Co1 Cr1 Cu1 Ni1 Ti1,BCC,,BCC,,,6.4,,C,25.0,,1495.0,,8.0,36.0,157,,,,10.1016/j.matdes.2009.09.016,2010,Effect of rare earth Y addition on the microstructure and mechanical properties of high entropy AlCoCrCuNiTi alloys
29,Al1 Co1 Cr1 Cu1 Ni1 Ti1 Y1,Other,CAST,other,,,5.8,,C,25.0,,1192.0,,4.0,37.0,,,,,10.1016/j.matdes.2009.09.016,2010,Effect of rare earth Y addition on the microstructure and mechanical properties of high entropy AlCoCrCuNiTi alloys
29,Al1 Co1 Cr1 Cu1 Ni1 Ti1 Y0.5,Other,CAST,other,,,6.1,,C,25.0,,1025.0,,3.0,36.0,,,,,10.1016/j.matdes.2009.09.016,2010,Effect of rare earth Y addition on the microstructure and mechanical properties of high entropy AlCoCrCuNiTi alloys
29,Al1 Co1 Cr1 Cu1 Ni1 Ti1 Y0.8,Other,CAST,other,,,5.9,,C,25.0,,1325.0,,5.0,38.0,,,,,10.1016/j.matdes.2009.09.016,2010,Effect of rare earth Y addition on the microstructure and mechanical properties of high entropy AlCoCrCuNiTi alloys
30,Co1 Cu1 Fe1 Ni1,FCC,CAST,FCC,,,8.6,,T,25.0,,480.0,,15.0,,187,,,,10.1016/j.msea.2012.03.080,2012,Microstructure and the properties of FeCoCuNiSnx high entropy alloys
30,Co1 Cu1 Fe1 Ni1 Sn0.02,FCC,CAST,FCC,,,8.6,,T,25.0,,548.0,,17.0,,185,,,,10.1016/j.msea.2012.03.080,2012,Microstructure and the properties of FeCoCuNiSnx high entropy alloys
30,Co1 Cu1 Fe1 Ni1 Sn0.04,FCC+Sec.,CAST,other,,,8.6,,T,25.0,,594.0,,18.0,,,,,,10.1016/j.msea.2012.03.080,2012,Microstructure and the properties of FeCoCuNiSnx high entropy alloys
30,Co1 Cu1 Fe1 Ni1 Sn0.05,FCC+Sec.,CAST,other,,,8.6,,T,25.0,,615.0,,20.0,,,,,,10.1016/j.msea.2012.03.080,2012,Microstructure and the properties of FeCoCuNiSnx high entropy alloys
30,Co1 Cu1 Fe1 Ni1 Sn0.07,FCC+Sec.,CAST,other,,,8.6,,T,25.0,,632.0,,19.0,,,,,,10.1016/j.msea.2012.03.080,2012,Microstructure and the properties of FeCoCuNiSnx high entropy alloys
30,Co1 Cu1 Fe1 Ni1 Sn0.1,FCC+Sec.,CAST,other,,,8.6,,T,25.0,,602.0,,5.0,,,,,,10.1016/j.msea.2012.03.080,2012,Microstructure and the properties of FeCoCuNiSnx high entropy alloys
30,Co1 Cu1 Fe1 Ni1 Sn0.2,FCC+Sec.,CAST,other,,,8.5,,T,25.0,,261.0,,2.0,,,,,,10.1016/j.msea.2012.03.080,2012,Microstructure and the properties of FeCoCuNiSnx high entropy alloys
30,Co1 Cu1 Fe1 Ni1 Sn0.5,FCC+Sec.,CAST,other,,,8.3,,,25.0,,,,,,,,,,10.1016/j.msea.2012.03.080,2012,Microstructure and the properties of FeCoCuNiSnx high entropy alloys
31,Co1 Cu1 Fe1 Mn1 Ni1,FCC,CAST,FCC,,,8.4,208.0,T,25.0,,478.0,,14.0,,189,,,,10.1016/j.matdes.2012.08.019,2013,Microstructure and tensile properties of FeMnNiCuCoSnx high entropy alloys
31,Co1 Cu1 Fe1 Mn1 Ni1 Sn0.03,FCC,CAST,FCC,,,8.4,192.0,T,25.0,,465.0,,18.0,,187,,,,10.1016/j.matdes.2012.08.019,2013,Microstructure and tensile properties of FeMnNiCuCoSnx high entropy alloys
31,Co1 Cu1 Fe1 Mn1 Ni1 Sn0.05,FCC+Sec.,CAST,other,,,8.4,205.0,T,25.0,,475.0,,12.0,,,,,,10.1016/j.matdes.2012.08.019,2013,Microstructure and tensile properties of FeMnNiCuCoSnx high entropy alloys
31,Co1 Cu1 Fe1 Mn1 Ni1 Sn0.08,FCC+Sec.,CAST,other,,,8.3,219.0,T,25.0,,425.0,,7.0,,,,,,10.1016/j.matdes.2012.08.019,2013,Microstructure and tensile properties of FeMnNiCuCoSnx high entropy alloys
31,Co1 Cu1 Fe1 Mn1 Ni1 Sn0.1,FCC+Sec.,CAST,other,,,8.3,253.0,T,25.0,,470.0,,6.0,,,,,,10.1016/j.matdes.2012.08.019,2013,Microstructure and tensile properties of FeMnNiCuCoSnx high entropy alloys
31,Co1 Cu1 Fe1 Mn1 Ni1 Sn0.2,FCC+Sec.,CAST,other,,,8.3,319.0,T,25.0,,368.0,,2.0,,,,,,10.1016/j.matdes.2012.08.019,2013,Microstructure and tensile properties of FeMnNiCuCoSnx high entropy alloys
32,Al1 Cr1 Cu1 Fe1 Ni1,FCC+BCC,ANNEAL,other,,,6.8,495.0,,25.0,,,,,,,,,,10.1016/j.msea.2011.11.063,2012,Microstructure and properties of AlCrFeCuNix (0.6≤x≤1.4) high-entropy alloys
32,Al1 Cr1 Cu1 Fe1 Ni0.6,FCC+BCC,ANNEAL,other,,,6.6,496.0,,25.0,,,,,,,,,,10.1016/j.msea.2011.11.063,2012,Microstructure and properties of AlCrFeCuNix (0.6≤x≤1.4) high-entropy alloys
32,Al1 Cr1 Cu1 Fe1 Ni0.8,FCC+BCC,ANNEAL,other,,,6.7,486.0,,25.0,,,,,,,,,,10.1016/j.msea.2011.11.063,2012,Microstructure and properties of AlCrFeCuNix (0.6≤x≤1.4) high-entropy alloys
32,Al0.833 Cr0.833 Cu0.833 Fe0.833 Ni1,FCC+BCC,ANNEAL,other,,,6.8,407.0,,25.0,,,,,,,,,,10.1016/j.msea.2011.11.063,2012,Microstructure and properties of AlCrFeCuNix (0.6≤x≤1.4) high-entropy alloys
32,Al0.714 Cr0.714 Cu0.714 Fe0.714 Ni1,FCC+BCC,ANNEAL,other,,,6.9,367.0,,25.0,,,,,,,,,,10.1016/j.msea.2011.11.063,2012,Microstructure and properties of AlCrFeCuNix (0.6≤x≤1.4) high-entropy alloys
32,Co1 Cr1 Cu1 Fe1 Ni1,FCC,,FCC,,,8.3,286.0,C,25.0,230.0,888.0,51.0,,,206,,,,10.1016/j.msea.2011.11.063,2012,Microstructure and properties of AlCrFeCuNix (0.6≤x≤1.4) high-entropy alloys
33,Al0.1 Cr0.5 Cu0.5 Fe0.5 Ni1,FCC,,FCC,,,8.0,,,25.0,,,,,,197,,,,10.1063/1.3587228,2011,Effect of valence electron concentration on stability of fcc or bcc phase in high entropy alloys
33,Al0.2 Cr0.5 Cu0.5 Fe0.5 Ni1,FCC,,FCC,,,7.8,,,25.0,,,,,,190,,,,10.1063/1.3587228,2011,Effect of valence electron concentration on stability of fcc or bcc phase in high entropy alloys
33,Al0.3 Cr0.5 Cu0.5 Fe0.5 Ni1,FCC,,FCC,,,7.5,,,25.0,,,,,,185,,,,10.1063/1.3587228,2011,Effect of valence electron concentration on stability of fcc or bcc phase in high entropy alloys
33,Al0.4 Cr0.5 Cu0.5 Fe0.5 Ni1,FCC,,FCC,,,7.3,,,25.0,,,,,,179,,,,10.1063/1.3587228,2011,Effect of valence electron concentration on stability of fcc or bcc phase in high entropy alloys
33,Al0.6 Cr0.5 Cu0.5 Fe0.5 Ni1,FCC+BCC,,other,,,6.9,,,25.0,,,,,,,,,,10.1063/1.3587228,2011,Effect of valence electron concentration on stability of fcc or bcc phase in high entropy alloys
33,Al0.5 Cr0.5 Cu0.5 Fe0.5 Ni1,FCC+BCC,,other,,,7.1,,,25.0,,,,,,,,,,10.1063/1.3587228,2011,Effect of valence electron concentration on stability of fcc or bcc phase in high entropy alloys
34,Al1 Cr1 Cu1 Fe1 Ni1 Ti1,BCC+BCC+Sec.,ANNEAL,other,,,6.3,,C,25.0,,1219.0,,,,,,,,10.1016/j.jallcom.2011.02.108,2011,Microstructure and property of AlTiCrFeNiCu high-entropy alloy
35,Al1 Cu0.889 Fe0.667 Ni0.889 Ti1,FCC,CAST,FCC,,,5.9,516.0,C,25.0,980.0,1326.0,,7.0,145.0,131,,,,10.1016/j.apsusc.2015.07.207,2015,"Effect of iron content on the structure and mechanical properties of Al25Ti25Ni25Cu25 and (AlTi)60-xNi20Cu20Fex (x=15, 20) high-entropy alloys"
35,Al1 Cu1 Fe1 Ni1 Ti1,FCC,CAST,FCC,,,6.1,516.0,C,25.0,1074.0,1617.0,,8.0,146.0,137,,,,10.1016/j.apsusc.2015.07.207,2015,"Effect of iron content on the structure and mechanical properties of Al25Ti25Ni25Cu25 and (AlTi)60-xNi20Cu20Fex (x=15, 20) high-entropy alloys"
35,Al1 Cu1 Ni1 Ti1,FCC,CAST,FCC,,,5.7,537.0,C,25.0,300.0,536.0,,0.85,108.0,122,,,,10.1016/j.apsusc.2015.07.207,2015,"Effect of iron content on the structure and mechanical properties of Al25Ti25Ni25Cu25 and (AlTi)60-xNi20Cu20Fex (x=15, 20) high-entropy alloys"
36,Al1 Cu0.062 Li0.062 Mg0.062 Zn0.062,FCC+Sec.,CAST,other,,,2.9,,C,25.0,488.0,879.0,17.0,,,,,,,10.1007/s11837-015-1402-z,2015,"Erratum to: Phase Stability of Low-Density, Multiprincipal Component Alloys Containing Aluminum, Magnesium, and Lithium"
36,Al1 Li0.062 Mg0.062 Sn0.062 Zn0.062,FCC+Sec.,CAST,other,,,3.0,,C,25.0,415.0,836.0,16.0,,,,,,,10.1007/s11837-015-1402-z,2015,"Erratum to: Phase Stability of Low-Density, Multiprincipal Component Alloys Containing Aluminum, Magnesium, and Lithium"
36,Al1 Cu0.2 Li0.5 Mg1 Zn0.5,Other,CAST,other,,,2.7,,,25.0,,,,,,,,,,10.1007/s11837-015-1402-z,2015,"Erratum to: Phase Stability of Low-Density, Multiprincipal Component Alloys Containing Aluminum, Magnesium, and Lithium"
36,Al1 Cu0.5 Li0.5 Mg1 Sn0.2,Other,CAST,other,,,3.0,,,25.0,,,,,,,,,,10.1007/s11837-015-1402-z,2015,"Erratum to: Phase Stability of Low-Density, Multiprincipal Component Alloys Containing Aluminum, Magnesium, and Lithium"
36,Al1 Li0.5 Mg1 Sn0.2 Zn0.5,FCC+Sec.,CAST,other,,,2.9,,C,25.0,546.0,546.0,,,,,,,,10.1007/s11837-015-1402-z,2015,"Erratum to: Phase Stability of Low-Density, Multiprincipal Component Alloys Containing Aluminum, Magnesium, and Lithium"
36,Al1 Li1 Mg1 Sn1 Zn1,FCC+HCP+Sec.,CAST,other,,,3.9,,C,25.0,600.0,615.0,1.0,,,,,,,10.1007/s11837-015-1402-z,2015,"Erratum to: Phase Stability of Low-Density, Multiprincipal Component Alloys Containing Aluminum, Magnesium, and Lithium"
38,Al0.667 Li0.667 Mg0.333 Sc0.667 Ti1,FCC+HCP,,other,,,2.7,591.0,,25.0,,,,,,,,,,10.1080/21663831.2014.985855,2014,"A Novel Low-Density, High-Hardness, High-entropy Alloy with Close-packed Single-phase Nanocrystalline Structures"
39,Al0.214 Nb0.714 Ta0.571 Ti1 V0.143 Zr0.929,BCC,OTHER,BCC,180.0,,7.7,500.0,C,25.0,1965.0,2061.0,5.0,,,107,,,,10.1007/s11837-014-1066-0,2014,Microstructure and Properties of Aluminum-Containing Refractory High-Entropy Alloys
39,Al0.214 Nb0.714 Ta0.571 Ti1 V0.143 Zr0.929,BCC,OTHER,BCC,,,7.7,,C,800.0,678.0,693.0,50.0,,,107,,,,10.1007/s11837-014-1066-0,2014,Microstructure and Properties of Aluminum-Containing Refractory High-Entropy Alloys
39,Al0.214 Nb0.714 Ta0.571 Ti1 V0.143 Zr0.929,BCC,OTHER,BCC,,,7.7,,C,1000.0,166.0,189.0,50.0,,,107,,,,10.1007/s11837-014-1066-0,2014,Microstructure and Properties of Aluminum-Containing Refractory High-Entropy Alloys
39,Al0.214 Nb0.714 Ta0.714 Ti1 Zr0.929,BCC,OTHER,BCC,200.0,,8.1,490.0,C,25.0,1965.0,2054.0,5.0,,,110,,,,10.1007/s11837-014-1066-0,2014,Microstructure and Properties of Aluminum-Containing Refractory High-Entropy Alloys
39,Al0.214 Nb0.714 Ta0.714 Ti1 Zr0.929,BCC,OTHER,BCC,,,8.1,,C,800.0,362.0,397.0,50.0,,,110,,,,10.1007/s11837-014-1066-0,2014,Microstructure and Properties of Aluminum-Containing Refractory High-Entropy Alloys
39,Al0.214 Nb0.714 Ta0.714 Ti1 Zr0.929,BCC,OTHER,BCC,,,8.1,,C,1000.0,236.0,247.0,50.0,,,110,,,,10.1007/s11837-014-1066-0,2014,Microstructure and Properties of Aluminum-Containing Refractory High-Entropy Alloys
39,Al0.4 Hf0.6 Nb1 Ta1 Ti1 Zr1,BCC,OTHER,BCC,140.0,,9.1,500.0,C,25.0,1841.0,2269.0,10.0,,,107,,,,10.1007/s11837-014-1066-0,2014,Microstructure and Properties of Aluminum-Containing Refractory High-Entropy Alloys
39,Al0.4 Hf0.6 Nb1 Ta1 Ti1 Zr1,BCC,OTHER,BCC,,,9.1,,C,800.0,796.0,834.0,50.0,,,107,,,,10.1007/s11837-014-1066-0,2014,Microstructure and Properties of Aluminum-Containing Refractory High-Entropy Alloys
39,Al0.4 Hf0.6 Nb1 Ta1 Ti1 Zr1,BCC,OTHER,BCC,,,9.1,,C,1000.0,298.0,455.0,50.0,,,107,,,,10.1007/s11837-014-1066-0,2014,Microstructure and Properties of Aluminum-Containing Refractory High-Entropy Alloys
39,Al0.333 Nb0.667 Ta0.533 Ti1 V0.133 Zr0.667,BCC,OTHER,BCC,100.0,,7.6,530.0,C,25.0,2035.0,2105.0,5.0,,,109,,,,10.1007/s11837-014-1066-0,2014,Microstructure and Properties of Aluminum-Containing Refractory High-Entropy Alloys
39,Al0.333 Nb0.667 Ta0.533 Ti1 V0.133 Zr0.667,BCC,OTHER,BCC,,,7.6,,C,800.0,796.0,851.0,50.0,,,109,,,,10.1007/s11837-014-1066-0,2014,Microstructure and Properties of Aluminum-Containing Refractory High-Entropy Alloys
39,Al0.333 Nb0.667 Ta0.533 Ti1 V0.133 Zr0.667,BCC,OTHER,BCC,,,7.6,,C,1000.0,220.0,225.0,50.0,,,109,,,,10.1007/s11837-014-1066-0,2014,Microstructure and Properties of Aluminum-Containing Refractory High-Entropy Alloys
39,Al1 Mo0.5 Nb1 Ta0.5 Ti1 Zr1,BCC+B2,OTHER,other,75.0,,7.1,591.0,C,25.0,2000.0,2368.0,10.0,,,,,,,10.1007/s11837-014-1066-0,2014,Microstructure and Properties of Aluminum-Containing Refractory High-Entropy Alloys
39,Al1 Mo0.5 Nb1 Ta0.5 Ti1 Zr1,BCC+B2,OTHER,other,,,7.1,,C,800.0,1597.0,1810.0,11.0,,,,,,,10.1007/s11837-014-1066-0,2014,Microstructure and Properties of Aluminum-Containing Refractory High-Entropy Alloys
39,Al1 Mo0.5 Nb1 Ta0.5 Ti1 Zr1,BCC+B2,OTHER,other,,,7.1,,C,1000.0,745.0,772.0,50.0,,,,,,,10.1007/s11837-014-1066-0,2014,Microstructure and Properties of Aluminum-Containing Refractory High-Entropy Alloys
39,Al1 Mo0.5 Nb1 Ta0.5 Ti1 Zr1,BCC+B2,OTHER,other,,,7.1,,C,1200.0,250.0,,50.0,,,,,,,10.1007/s11837-014-1066-0,2014,Microstructure and Properties of Aluminum-Containing Refractory High-Entropy Alloys
39,Al0.667 Nb1 Ta0.333 Ti1 Zr0.333,BCC,OTHER,BCC,2000.0,,6.8,408.0,C,25.0,1280.0,1367.0,4.0,,,105,,,,10.1007/s11837-014-1066-0,2014,Microstructure and Properties of Aluminum-Containing Refractory High-Entropy Alloys
39,Al0.667 Nb1 Ta0.333 Ti1 Zr0.333,BCC,OTHER,BCC,,,6.8,,C,800.0,728.0,1000.0,12.0,,,105,,,,10.1007/s11837-014-1066-0,2014,Microstructure and Properties of Aluminum-Containing Refractory High-Entropy Alloys
39,Al0.667 Nb1 Ta0.333 Ti1 Zr0.333,BCC,OTHER,BCC,,,6.8,,C,1000.0,403.0,415.0,50.0,,,105,,,,10.1007/s11837-014-1066-0,2014,Microstructure and Properties of Aluminum-Containing Refractory High-Entropy Alloys
40,Al0.3 Hf1 Nb1 Ta1 Ti1 Zr1,BCC,CAST,BCC,105.0,,9.5,353.0,C,25.0,1188.0,,50.0,,63.0,105,,,,10.1016/j.jallcom.2014.11.064,2015,Effect of Al addition on mechanical properties and microstructure of refractory AlxHfNbTaTiZr alloys
40,Al0.5 Hf1 Nb1 Ta1 Ti1 Zr1,BCC,CAST,BCC,86.0,,9.3,396.0,C,25.0,1302.0,,46.0,,97.0,104,,,,10.1016/j.jallcom.2014.11.064,2015,Effect of Al addition on mechanical properties and microstructure of refractory AlxHfNbTaTiZr alloys
40,Al0.75 Hf1 Nb1 Ta1 Ti1 Zr1,BCC,CAST,BCC,89.0,,9.1,427.0,C,25.0,1415.0,2050.0,30.0,,102.0,103,,,,10.1016/j.jallcom.2014.11.064,2015,Effect of Al addition on mechanical properties and microstructure of refractory AlxHfNbTaTiZr alloys
40,Al1 Hf1 Nb1 Ta1 Ti1 Zr1,BCC+Sec.,CAST,other,92.0,,8.9,441.0,C,25.0,1489.0,1900.0,21.0,,103.0,,,,,10.1016/j.jallcom.2014.11.064,2015,Effect of Al addition on mechanical properties and microstructure of refractory AlxHfNbTaTiZr alloys
40,Hf1 Nb1 Ta1 Ti1 Zr1,BCC,CAST,BCC,120.0,,9.9,295.0,C,25.0,1073.0,,50.0,,55.0,107,,,,10.1016/j.jallcom.2014.11.064,2015,Effect of Al addition on mechanical properties and microstructure of refractory AlxHfNbTaTiZr alloys
41,Al0.25 Mo1 Nb1 Ti1 V1,BCC,CAST,BCC,,,7.1,460.0,C,25.0,1250.0,1500.0,13.0,,,161,,,,10.3390/e16020870,2014,Microstructures and Crackling Noise of AlxNbTiMoV High Entropy Alloys
41,Al0.5 Mo1 Nb1 Ti1 V1,BCC,CAST,BCC,,,6.8,487.0,C,25.0,1625.0,1800.0,11.0,,,156,,,,10.3390/e16020870,2014,Microstructures and Crackling Noise of AlxNbTiMoV High Entropy Alloys
41,Al0.75 Mo1 Nb1 Ti1 V1,BCC,CAST,BCC,,,6.6,517.0,C,25.0,1260.0,1300.0,8.0,,,151,,,,10.3390/e16020870,2014,Microstructures and Crackling Noise of AlxNbTiMoV High Entropy Alloys
41,Al1 Mo1 Nb1 Ti1 V1,BCC,CAST,BCC,,,6.4,537.0,C,25.0,1375.0,1400.0,3.0,,,147,,,,10.3390/e16020870,2014,Microstructures and Crackling Noise of AlxNbTiMoV High Entropy Alloys