IDENTIFIER: Reference ID,FORMULA,PROPERTY: Microstructure,PROPERTY: Processing method,PROPERTY: BCC/FCC/other,PROPERTY: grain size ($\mu$m),PROPERTY: Exp. Density (g/cm$^3$),PROPERTY: Calculated Density (g/cm$^3$),PROPERTY: HV,PROPERTY: Type of test,PROPERTY: Test temperature ($^\circ$C),PROPERTY: YS (MPa),PROPERTY: UTS (MPa),PROPERTY: Elongation (%),PROPERTY: Elongation plastic (%),PROPERTY: Exp. Young modulus (GPa),PROPERTY: Calculated Young modulus (GPa),PROPERTY: O content (wppm),PROPERTY: N content (wppm),PROPERTY: C content (wppm),REFERENCE: doi,REFERENCE: year,REFERENCE: title
183,Al0.304 Co1 Cr1 Fe1 Ni1,FCC+B2,,other,0.7,,7.6,,T,25.0,860.0,1050.0,48.0,,,,,,,10.1016/j.matlet.2017.04.072,2017,Formation of ultrafine-grained microstructure in Al 0.3 CoCrFeNi high entropy alloys with grain boundary precipitates
183,Al0.304 Co1 Cr1 Fe1 Ni1,FCC+B2,,other,2.7,,7.6,,T,25.0,690.0,930.0,51.0,,,,,,,10.1016/j.matlet.2017.04.072,2017,Formation of ultrafine-grained microstructure in Al 0.3 CoCrFeNi high entropy alloys with grain boundary precipitates
183,Al0.304 Co1 Cr1 Fe1 Ni1,FCC+B2,,other,3.8,,7.6,,T,25.0,550.0,800.0,64.0,,,,,,,10.1016/j.matlet.2017.04.072,2017,Formation of ultrafine-grained microstructure in Al 0.3 CoCrFeNi high entropy alloys with grain boundary precipitates
183,Al0.304 Co1 Cr1 Fe1 Ni1,FCC,,FCC,53.0,,7.6,,T,25.0,260.0,620.0,87.0,,,210,,,,10.1016/j.matlet.2017.04.072,2017,Formation of ultrafine-grained microstructure in Al 0.3 CoCrFeNi high entropy alloys with grain boundary precipitates
183,Al0.304 Co1 Cr1 Fe1 Ni1,FCC+BCC,WROUGHT,other,,,7.6,,,,,,,,,,,,,10.1016/j.matlet.2017.04.072,2017,Formation of ultrafine-grained microstructure in Al 0.3 CoCrFeNi high entropy alloys with grain boundary precipitates
179,Al0.304 Co1 Cr1 Fe1 Ni1,FCC,WROUGHT,FCC,,,7.6,,,,,,,,,210,,,,10.1016/j.scriptamat.2016.06.019,2016,Stability of ordered L12 and B2 precipitates in face centered cubic based high entropy alloys - Al0.3CoFeCrNi and Al0.3CuFeCrNi2
179,Al0.304 Co1 Cr1 Fe1 Ni1,FCC+L12,WROUGHT,other,,,7.6,,,,,,,,,,,,,10.1016/j.scriptamat.2016.06.019,2016,Stability of ordered L12 and B2 precipitates in face centered cubic based high entropy alloys - Al0.3CoFeCrNi and Al0.3CuFeCrNi2
178,Al0.304 Co1 Cr1 Fe1 Ni1,FCC,WROUGHT,FCC,144.0,,7.6,,T,25.0,159.0,410.0,65.0,,,210,,,,10.1016/j.matdes.2017.02.072,2017,Optimizing the coupled effects of Hall-Petch and precipitation strengthening in a Al 0.3 CoCrFeNi high entropy alloy
178,Al0.304 Co1 Cr1 Fe1 Ni1,FCC+B2,WROUGHT,other,144.0,,7.6,,T,25.0,215.0,520.0,43.0,,,,,,,10.1016/j.matdes.2017.02.072,2017,Optimizing the coupled effects of Hall-Petch and precipitation strengthening in a Al 0.3 CoCrFeNi high entropy alloy
178,Al0.304 Co1 Cr1 Fe1 Ni1,FCC+L12,WROUGHT,other,144.0,,7.6,,T,25.0,285.0,540.0,55.0,,,,,,,10.1016/j.matdes.2017.02.072,2017,Optimizing the coupled effects of Hall-Petch and precipitation strengthening in a Al 0.3 CoCrFeNi high entropy alloy
178,Al0.304 Co1 Cr1 Fe1 Ni1,FCC,WROUGHT,FCC,23.0,,7.6,,T,25.0,263.0,589.0,60.0,,,210,,,,10.1016/j.matdes.2017.02.072,2017,Optimizing the coupled effects of Hall-Petch and precipitation strengthening in a Al 0.3 CoCrFeNi high entropy alloy
178,Al0.304 Co1 Cr1 Fe1 Ni1,FCC+L12+B2,WROUGHT,other,23.0,,7.6,,T,25.0,490.0,840.0,45.0,,,,,,,10.1016/j.matdes.2017.02.072,2017,Optimizing the coupled effects of Hall-Petch and precipitation strengthening in a Al 0.3 CoCrFeNi high entropy alloy
184,Al0.304 Co1 Cr1 Fe1 Ni1,FCC+BCC,ANNEAL,other,,,7.6,,,,,,,,,,,,,10.1016/j.actamat.2017.03.066,2017,Secondary phases in AlxCoCrFeNi high-entropy alloys: An in-situ TEM heating study and thermodynamic appraisal
185,Al0.304 Co1 Cr1 Fe1 Ni1,FCC+L12,CAST,other,,,7.6,,T,25.0,175.0,335.0,58.0,,,,,,,10.1016/j.jallcom.2008.12.088,2009,Microstructure and tensile behaviors of FCC Al0.3CoCrFeNi high entropy alloy
185,Al0.304 Co1 Cr1 Fe1 Ni1,FCC+L12,ANNEAL,other,,,7.6,,T,25.0,305.0,525.0,44.0,,,,,,,10.1016/j.jallcom.2008.12.088,2009,Microstructure and tensile behaviors of FCC Al0.3CoCrFeNi high entropy alloy
185,Al0.304 Co1 Cr1 Fe1 Ni1,FCC+B2,ANNEAL,other,,,7.6,,T,25.0,280.0,570.0,44.0,,,,,,,10.1016/j.jallcom.2008.12.088,2009,Microstructure and tensile behaviors of FCC Al0.3CoCrFeNi high entropy alloy
186,Al0.304 Co1 Cr1 Fe1 Ni1,FCC,ANNEAL,FCC,,,7.6,,,,,,,,,210,,,,10.1016/j.jallcom.2013.11.084,2014,"Phases, microstructure and mechanical properties of AlxCoCrFeNi high-entropy alloys at elevated temperatures"
187,Al0.304 Co1 Cr1 Fe1 Ni1,FCC+B2,ANNEAL,other,,,7.6,,,,,,,,,,,,,10.1016/j.matdes.2016.05.079,2016,The effect of grain size on the annealing-induced phase transformation in an Al0·3CoCrFeNi high entropy alloy
190,Al1 Co1 Cr1 Fe1 Ni1,BCC+B2,CAST,other,,,6.7,,T,700.0,395.0,400.0,1.0,,,,,,,10.1016/j.msea.2015.08.078,2015,Tensile ductility of an AlCoCrFeNi multi-phase high-entropy alloy through hot isostatic pressing (HIP) and homogenization
188,Al1 Co1 Cr1 Fe1 Ni1,BCC+B2,CAST,other,,,6.7,,C,25.0,1380.0,,10.0,,,,,,,10.1016/j.jallcom.2016.05.034,2016,Heat treatment impacts the micro-structure and mechanical properties of AlCoCrFeNi high entropy alloy
188,Al1 Co1 Cr1 Fe1 Ni1,BCC+B2+FCC+Sec.,ANNEAL,other,,,6.7,,C,25.0,1430.0,,1.6,,,,,,,10.1016/j.jallcom.2016.05.034,2016,Heat treatment impacts the micro-structure and mechanical properties of AlCoCrFeNi high entropy alloy
188,Al1 Co1 Cr1 Fe1 Ni1,BCC+B2+FCC,ANNEAL,other,,,6.7,,C,25.0,1690.0,,2.7,,,,,,,10.1016/j.jallcom.2016.05.034,2016,Heat treatment impacts the micro-structure and mechanical properties of AlCoCrFeNi high entropy alloy
188,Al1 Co1 Cr1 Fe1 Ni1,BCC+B2+FCC,ANNEAL,other,,,6.7,,C,25.0,1220.0,,13.0,,,,,,,10.1016/j.jallcom.2016.05.034,2016,Heat treatment impacts the micro-structure and mechanical properties of AlCoCrFeNi high entropy alloy
188,Al1 Co1 Cr1 Fe1 Ni1,BCC+B2+FCC,ANNEAL,other,,,6.7,,C,25.0,1450.0,,20.0,,,,,,,10.1016/j.jallcom.2016.05.034,2016,Heat treatment impacts the micro-structure and mechanical properties of AlCoCrFeNi high entropy alloy
189,Al1 Co1 Cr1 Fe1 Ni1,FCC+BCC,ANNEAL,other,,,6.7,,T,25.0,900.0,935.0,0.8,,,,,,,10.1016/j.jallcom.2017.03.307,2017,In-situ study of crack initiation and propagation in a dual phase AlCoCrFeNi high entropy alloy
191,Al0.515 Cr0.515 Fe1 Ni1,FCC+BCC+B2,CAST,other,,,6.9,,T,25.0,796.0,1437.0,15.7,,,,,,,10.1016/j.matlet.2016.01.096,2016,A multi-component AlCrFe2Ni2 alloy with excellent mechanical properties
192,Al0.511 Co0.511 Cr0.511 Fe0.511 Ni1,L12+B2,,other,,,7.0,,T,25.0,545.0,1030.0,16.5,,,,,,,10.1016/j.actamat.2016.11.016,2017,Directly cast bulk eutectic and near-eutectic high entropy alloys with balanced strength and ductility in a wide temperature range
192,Al0.465 Co0.465 Cr0.465 Fe0.465 Ni1,L12+B2,,other,,,7.1,,T,25.0,545.0,1050.0,16.5,,,,,,,10.1016/j.actamat.2016.11.016,2017,Directly cast bulk eutectic and near-eutectic high entropy alloys with balanced strength and ductility in a wide temperature range
192,Al0.451 Co0.451 Cr0.451 Fe0.451 Ni1,L12+B2,,other,,,7.1,,T,25.0,545.0,1110.0,20.0,,,,,,,10.1016/j.actamat.2016.11.016,2017,Directly cast bulk eutectic and near-eutectic high entropy alloys with balanced strength and ductility in a wide temperature range
192,Al0.511 Co0.511 Cr0.511 Fe0.511 Ni1,,,other,,,7.0,,T,-70.0,580.0,1034.0,10.5,,,,,,,10.1016/j.actamat.2016.11.016,2017,Directly cast bulk eutectic and near-eutectic high entropy alloys with balanced strength and ductility in a wide temperature range
192,Al0.465 Co0.465 Cr0.465 Fe0.465 Ni1,,,other,,,7.1,,T,-70.0,595.0,1168.0,15.8,,,,,,,10.1016/j.actamat.2016.11.016,2017,Directly cast bulk eutectic and near-eutectic high entropy alloys with balanced strength and ductility in a wide temperature range
192,Al0.451 Co0.451 Cr0.451 Fe0.451 Ni1,,,other,,,7.1,,T,-70.0,570.0,1143.0,18.0,,,,,,,10.1016/j.actamat.2016.11.016,2017,Directly cast bulk eutectic and near-eutectic high entropy alloys with balanced strength and ductility in a wide temperature range
192,Al0.511 Co0.511 Cr0.511 Fe0.511 Ni1,,,other,,,7.0,,T,-192.0,700.0,1000.0,4.0,,,,,,,10.1016/j.actamat.2016.11.016,2017,Directly cast bulk eutectic and near-eutectic high entropy alloys with balanced strength and ductility in a wide temperature range
192,Al0.465 Co0.465 Cr0.465 Fe0.465 Ni1,,,other,,,7.1,,T,-192.0,700.0,1000.0,7.0,,,,,,,10.1016/j.actamat.2016.11.016,2017,Directly cast bulk eutectic and near-eutectic high entropy alloys with balanced strength and ductility in a wide temperature range
192,Al0.451 Co0.451 Cr0.451 Fe0.451 Ni1,,,other,,,7.1,,T,-192.0,700.0,1000.0,9.0,,,,,,,10.1016/j.actamat.2016.11.016,2017,Directly cast bulk eutectic and near-eutectic high entropy alloys with balanced strength and ductility in a wide temperature range
195,Al0.343 Co0.514 Cr0.514 Fe1 Ni0.514,BCC+B2,CAST,other,,,7.2,,T,25.0,866.0,1223.0,7.9,,,,,,,10.1016/j.scriptamat.2016.04.014,2016,
195,Al0.343 Co0.514 Cr0.514 Fe1 Ni0.514,,CAST,other,,,7.2,,T,650.0,400.0,468.0,6.3,,,,,,,10.1016/j.scriptamat.2016.04.014,2016,
195,Al0.343 Co0.514 Cr0.514 Fe1 Ni0.514,,CAST,other,,,7.2,,T,700.0,220.0,340.0,5.4,,,,,,,10.1016/j.scriptamat.2016.04.014,2016,
195,Al0.343 Co0.514 Cr0.514 Fe1 Ni0.514,,CAST,other,,,7.2,,C,25.0,1166.0,,30.2,,,,,,,10.1016/j.scriptamat.2016.04.014,2016,
199,Co1 Cr0.429 Fe0.571 Mo0.286 Ni0.571,FCC,CAST,FCC,,,8.6,,T,25.0,350.0,720.0,21.9,,,234,,,,10.1016/j.scriptamat.2017.05.019,2017,Precipitation strengthening of ductile Cr 15 Fe 20 Co 35 Ni 20 Mo 10 alloys
199,Co1 Cr0.429 Fe0.571 Mo0.286 Ni0.571,FCC+Sec.,WROUGHT,other,,,8.6,,T,25.0,1311.0,1410.0,12.1,,,,,,,10.1016/j.scriptamat.2017.05.019,2017,Precipitation strengthening of ductile Cr 15 Fe 20 Co 35 Ni 20 Mo 10 alloys
199,Co1 Cr0.429 Fe0.571 Mo0.286 Ni0.571,FCC+Sec.,WROUGHT,other,,,8.6,,T,25.0,1212.0,1360.0,14.9,,,,,,,10.1016/j.scriptamat.2017.05.019,2017,Precipitation strengthening of ductile Cr 15 Fe 20 Co 35 Ni 20 Mo 10 alloys
199,Co1 Cr0.429 Fe0.571 Mo0.286 Ni0.571,FCC+Sec.,WROUGHT,other,,,8.6,,T,25.0,1028.0,1249.0,18.3,,,,,,,10.1016/j.scriptamat.2017.05.019,2017,Precipitation strengthening of ductile Cr 15 Fe 20 Co 35 Ni 20 Mo 10 alloys
199,Co1 Cr0.429 Fe0.571 Mo0.286 Ni0.571,FCC+Sec.,WROUGHT,other,,,8.6,,T,25.0,879.0,1194.0,25.4,,,,,,,10.1016/j.scriptamat.2017.05.019,2017,Precipitation strengthening of ductile Cr 15 Fe 20 Co 35 Ni 20 Mo 10 alloys
199,Co1 Cr0.429 Fe0.571 Mo0.286 Ni0.571,FCC+Sec.,WROUGHT,other,,,8.6,,T,25.0,799.0,1127.0,28.2,,,,,,,10.1016/j.scriptamat.2017.05.019,2017,Precipitation strengthening of ductile Cr 15 Fe 20 Co 35 Ni 20 Mo 10 alloys
199,Co1 Cr0.429 Fe0.571 Mo0.286 Ni0.571,FCC,WROUGHT,FCC,,,8.6,,T,25.0,350.0,918.0,62.4,,,234,,,,10.1016/j.scriptamat.2017.05.019,2017,Precipitation strengthening of ductile Cr 15 Fe 20 Co 35 Ni 20 Mo 10 alloys
197,Co1 Cr1 Fe1 Ni1,FCC,CAST,FCC,,,8.2,,T,25.0,155.0,472.4,58.9,,,226,,,,10.1016/j.actamat.2016.06.063,2016,Ductile CoCrFeNiMox high entropy alloys strengthened by hard intermetallic phases
197,Co1 Cr1 Fe1 Mo0.083 Ni1,,CAST,other,,,8.2,,T,25.0,198.8,479.0,51.1,,,,,,,10.1016/j.actamat.2016.06.063,2016,Ductile CoCrFeNiMox high entropy alloys strengthened by hard intermetallic phases
197,Co1 Cr1 Fe1 Mo0.208 Ni1,,CAST,other,,,8.3,,T,25.0,254.7,589.6,55.1,,,,,,,10.1016/j.actamat.2016.06.063,2016,Ductile CoCrFeNiMox high entropy alloys strengthened by hard intermetallic phases
197,Co1 Cr1 Fe1 Mo0.304 Ni1,FCC+Sec.,CAST,other,,,8.4,,T,25.0,305.3,709.7,49.3,,,,,,,10.1016/j.actamat.2016.06.063,2016,Ductile CoCrFeNiMox high entropy alloys strengthened by hard intermetallic phases
197,Co1 Cr1 Fe1 Mo0.304 Ni1,FCC+Sec.,WROUGHT,other,3.0,,8.4,,T,25.0,815.5,1186.5,18.9,,,,,,,10.1016/j.actamat.2016.06.063,2016,Ductile CoCrFeNiMox high entropy alloys strengthened by hard intermetallic phases
197,Co1 Cr1 Fe1 Mo0.304 Ni1,FCC+Sec.,WROUGHT,other,3.1,,8.4,,T,25.0,646.7,1042.0,32.5,,,,,,,10.1016/j.actamat.2016.06.063,2016,Ductile CoCrFeNiMox high entropy alloys strengthened by hard intermetallic phases
197,Co1 Cr1 Fe1 Mo0.304 Ni1,FCC+Sec.,WROUGHT,other,1.6,,8.4,,T,25.0,683.7,1066.6,30.4,,,,,,,10.1016/j.actamat.2016.06.063,2016,Ductile CoCrFeNiMox high entropy alloys strengthened by hard intermetallic phases
177,Co1 Cr1 Fe1 Mn1 Ni1,FCC,WROUGHT,FCC,13.0,,8.0,,T,25.0,243.0,558.0,50.0,,,220,,,,10.1080/02670836.2017.1342367,2017,Controllable fabrication of a carbide-containing FeCoCrNiMn high-entropy alloy: microstructure and mechanical properties
177,C0.02 Co1 Cr1 Fe1 Mn1 Ni1,FCC+Sec.,WROUGHT,other,8.0,,8.0,,T,25.0,446.0,723.0,15.0,,,,,,,10.1080/02670836.2017.1342367,2017,Controllable fabrication of a carbide-containing FeCoCrNiMn high-entropy alloy: microstructure and mechanical properties
177,Co1 Cr1 Fe1 Mn1 Ni1,FCC,WROUGHT,FCC,7.0,,8.0,,T,25.0,249.0,621.0,41.0,,,220,,,,10.1080/02670836.2017.1342367,2017,Controllable fabrication of a carbide-containing FeCoCrNiMn high-entropy alloy: microstructure and mechanical properties
177,C0.02 Co1 Cr1 Fe1 Mn1 Ni1,FCC+Sec.,WROUGHT,other,4.0,,8.0,,T,25.0,581.0,857.0,28.0,,,,,,,10.1080/02670836.2017.1342367,2017,Controllable fabrication of a carbide-containing FeCoCrNiMn high-entropy alloy: microstructure and mechanical properties
196,Co1 Cr1 Fe1 Ni1,FCC,ANNEAL,FCC,,,8.2,,T,25.0,190.0,453.0,70.0,,,226,,,,10.1016/j.actamat.2015.08.076,2016,A precipitation-hardened high-entropy alloy with outstanding tensile properties
196,Al0.167 Co1 Cr1 Fe1 Ni1 Ti0.083,FCC,ANNEAL,FCC,289.7,,7.8,,T,25.0,210.0,503.0,70.0,,,214,,,,10.1016/j.actamat.2015.08.076,2016,A precipitation-hardened high-entropy alloy with outstanding tensile properties
196,Al0.167 Co1 Cr1 Fe1 Ni1 Ti0.083,FCC+L12+Sec.,WROUGHT,other,15.7,,7.8,,T,25.0,645.0,1094.0,39.0,,,,,,,10.1016/j.actamat.2015.08.076,2016,A precipitation-hardened high-entropy alloy with outstanding tensile properties
196,Al0.167 Co1 Cr1 Fe1 Ni1 Ti0.083,FCC+L12+Sec.,WROUGHT,other,2.8,,7.8,,T,25.0,1005.0,1273.0,17.0,,,,,,,10.1016/j.actamat.2015.08.076,2016,A precipitation-hardened high-entropy alloy with outstanding tensile properties
201,Al0.242 Co0.515 Cr0.515 Cu0.242 Fe0.515 Ni1,,ANNEAL,other,,,7.7,168.0,,,,,,,,,,,,10.1016/j.ultramic.2015.06.009,2015,"Influence of W, Mo and Ti trace elements on the phase separation in Al8Co17Cr17Cu8Fe17Ni33 based high entropy alloy"
201,Al0.242 Co0.515 Cr0.515 Cu0.242 Fe0.515 Ni1,,ANNEAL,other,,,7.7,328.0,,,,,,,,,,,,10.1016/j.ultramic.2015.06.009,2015,"Influence of W, Mo and Ti trace elements on the phase separation in Al8Co17Cr17Cu8Fe17Ni33 based high entropy alloy"
167,Al0.242 Co0.515 Cr0.515 Cu0.242 Fe0.515 Ni1,,ANNEAL,other,,,7.7,206.0,,,,,,,,,,,,10.1016/j.matchar.2018.06.036,2019,New multiphase compositionally complex alloys driven by the high entropy alloy approach
201,Al0.229 Co0.486 Cr0.4 Cu0.229 Fe0.486 Mo0.003 Ni1 Ti0.029 W0.003,,CAST,other,,,7.7,231.0,,,,,,,,,,,,10.1016/j.ultramic.2015.06.009,2015,"Influence of W, Mo and Ti trace elements on the phase separation in Al8Co17Cr17Cu8Fe17Ni33 based high entropy alloy"
201,Al0.229 Co0.486 Cr0.4 Cu0.229 Fe0.486 Mo0.003 Ni1 Ti0.029 W0.003,,ANNEAL,other,,,7.7,178.0,,,,,,,,,,,,10.1016/j.ultramic.2015.06.009,2015,"Influence of W, Mo and Ti trace elements on the phase separation in Al8Co17Cr17Cu8Fe17Ni33 based high entropy alloy"
201,Al0.229 Co0.486 Cr0.4 Cu0.229 Fe0.486 Mo0.003 Ni1 Ti0.029 W0.003,,ANNEAL,other,,,7.7,343.0,,,,,,,,,,,,10.1016/j.ultramic.2015.06.009,2015,"Influence of W, Mo and Ti trace elements on the phase separation in Al8Co17Cr17Cu8Fe17Ni33 based high entropy alloy"
167,Al0.229 Co0.486 Cr0.4 Cu0.229 Fe0.486 Mo0.003 Ni1 Ti0.029 W0.003,,ANNEAL,other,,,7.7,171.0,,,,,,,,,,,,10.1016/j.matchar.2018.06.036,2019,New multiphase compositionally complex alloys driven by the high entropy alloy approach
175,Al0.278 Co0.694 Cr0.222 Fe0.417 Ni1 Ti0.167,,CAST,other,,,7.4,343.0,,,,,,,,,,,,10.1007/s11837-015-1484-7,2015,High-Temperature Tensile Strength of Al10Co25Cr8Fe15Ni36Ti6 Compositionally Complex Alloy (High-Entropy Alloy)
175,Al0.278 Co0.694 Cr0.222 Fe0.417 Ni1 Ti0.167,,ANNEAL,other,,,7.4,341.0,,,,,,,,,,,,10.1007/s11837-015-1484-7,2015,High-Temperature Tensile Strength of Al10Co25Cr8Fe15Ni36Ti6 Compositionally Complex Alloy (High-Entropy Alloy)
175,Al0.278 Co0.694 Cr0.222 Fe0.417 Ni1 Ti0.167,FCC+L12+Sec.,ANNEAL,other,,,7.4,345.0,T,25.0,568.0,786.0,12.0,,,,,,,10.1007/s11837-015-1484-7,2015,High-Temperature Tensile Strength of Al10Co25Cr8Fe15Ni36Ti6 Compositionally Complex Alloy (High-Entropy Alloy)
175,Al0.278 Co0.694 Cr0.222 Fe0.417 Ni1 Ti0.167,FCC+L12+Sec.,ANNEAL,other,,,7.4,345.0,T,25.0,596.0,1039.0,20.0,,,,,,,10.1007/s11837-015-1484-7,2015,High-Temperature Tensile Strength of Al10Co25Cr8Fe15Ni36Ti6 Compositionally Complex Alloy (High-Entropy Alloy)
175,Al0.278 Co0.694 Cr0.222 Fe0.417 Ni1 Ti0.167,FCC+L12+Sec.,ANNEAL,other,,,7.4,345.0,T,700.0,487.0,702.0,18.0,,,,,,,10.1007/s11837-015-1484-7,2015,High-Temperature Tensile Strength of Al10Co25Cr8Fe15Ni36Ti6 Compositionally Complex Alloy (High-Entropy Alloy)
175,Al0.278 Co0.694 Cr0.222 Fe0.417 Ni1 Ti0.167,FCC+L12+Sec.,ANNEAL,other,,,7.4,345.0,T,700.0,486.0,624.0,11.0,,,,,,,10.1007/s11837-015-1484-7,2015,High-Temperature Tensile Strength of Al10Co25Cr8Fe15Ni36Ti6 Compositionally Complex Alloy (High-Entropy Alloy)
193,Al0.885 Cr1 Fe1 Ni1,BCC+B2,CAST,other,,,6.4,,C,25.0,770.0,,37.1,,,,,,,10.1016/j.msea.2016.11.019,2017,Effects of aluminum on microstructure and compressive properties of Al-Cr-Fe-Ni eutectic multi-component alloys
193,Al1 Cr1 Fe1 Ni1,BCC+B2,CAST,other,,,6.3,,C,25.0,843.2,,34.6,,,,,,,10.1016/j.msea.2016.11.019,2017,Effects of aluminum on microstructure and compressive properties of Al-Cr-Fe-Ni eutectic multi-component alloys
193,Al1 Cr0.889 Fe0.889 Ni0.889,BCC+B2,CAST,other,,,6.1,,C,25.0,1044.0,,27.1,,,,,,,10.1016/j.msea.2016.11.019,2017,Effects of aluminum on microstructure and compressive properties of Al-Cr-Fe-Ni eutectic multi-component alloys
193,Al1 Cr0.828 Fe0.828 Ni0.828,BCC+B2,CAST,other,,,6.0,,C,25.0,906.8,,31.4,,,,,,,10.1016/j.msea.2016.11.019,2017,Effects of aluminum on microstructure and compressive properties of Al-Cr-Fe-Ni eutectic multi-component alloys
193,Al1 Cr0.767 Fe0.767 Ni0.767,BCC+B2,CAST,other,,,5.9,,C,25.0,1122.8,,24.7,,,,,,,10.1016/j.msea.2016.11.019,2017,Effects of aluminum on microstructure and compressive properties of Al-Cr-Fe-Ni eutectic multi-component alloys
191,Al0.5 Cr0.5 Fe1 Ni1,BCC+B2,CAST,other,,,6.9,,C,25.0,,,17.0,,,,,,,10.1016/j.matlet.2016.01.096,2016,A multi-component AlCrFe2Ni2 alloy with excellent mechanical properties
168,Al1 Co1 Cr1 Fe1 Ni1,BCC+B2,CAST,other,,,6.7,,C,25.0,,,22.7,,,,,,,10.1016/j.matdes.2013.12.048,2014,Effect of vanadium addition on the microstructure and properties of AlCoCrFeNi high entropy alloy
182,Al0.545 Cr0.545 Fe0.515 Ni1 Ti0.273,BCC+B2+L12,CAST,other,,,6.4,,C,25.0,,,16.3,,,,,,,10.1016/j.jmst.2014.09.011,2015,Mechanical Properties Improvement of AlCrFeNi2Ti0.5 High Entropy Alloy through Annealing Design and its Relationship with its Particle-reinforced Microstructures
182,Al0.545 Cr0.545 Fe0.515 Ni1 Ti0.273,BCC+B2+L12,ANNEAL,other,,,6.4,,C,25.0,,,19.8,,,,,,,10.1016/j.jmst.2014.09.011,2015,Mechanical Properties Improvement of AlCrFeNi2Ti0.5 High Entropy Alloy through Annealing Design and its Relationship with its Particle-reinforced Microstructures
181,Cr1 Fe1 Ni1 V0.5 W1,FCC+BCC+Sec.,CAST,other,,,10.9,,C,25.0,,,7.3,,,,,,,10.1007/s11665-015-1767-8,2015,Effects of Tungsten on Microstructure and Mechanical Properties of CrFeNiV0.5W x and CrFeNi2V0.5W x High-Entropy Alloys
169,Al0.515 Cr0.515 Cu0.515 Fe0.515 Ni1,FCC+BCC+B2,CAST,other,,,7.1,,C,25.0,,,30.0,,,,,,,10.1016/j.msea.2015.09.089,2016,Strain rate effects on the dynamic mechanical properties of the AlCrCuFeNi2 high-entropy alloy
202,Co1 Cr1 Fe1 Mn1 Ni1,FCC,ANNEAL,FCC,,,8.0,,C,25.0,230.0,,75.0,,,220,,,,10.1134/S0031918X17060084,2017,"Effect of heat treatment on the structure and hardness of high-entropy alloys CoCrFeNiMnV x  (x = 0.25, 0.5, 0.75, 1)"