IDENTIFIER: Reference ID,FORMULA,PROPERTY: Microstructure,PROPERTY: Processing method,PROPERTY: BCC/FCC/other,PROPERTY: grain size ($\mu$m),PROPERTY: Exp. Density (g/cm$^3$),PROPERTY: Calculated Density (g/cm$^3$),PROPERTY: HV,PROPERTY: Type of test,PROPERTY: Test temperature ($^\circ$C),PROPERTY: YS (MPa),PROPERTY: UTS (MPa),PROPERTY: Elongation (%),PROPERTY: Elongation plastic (%),PROPERTY: Exp. Young modulus (GPa),PROPERTY: Calculated Young modulus (GPa),PROPERTY: O content (wppm),PROPERTY: N content (wppm),PROPERTY: C content (wppm),REFERENCE: doi,REFERENCE: year,REFERENCE: title
121,Al0.774 Fe1 Mn0.903 Ni0.484,,CAST,other,,,6.3,310.0,,,,,,,,,,,,10.1155/2019/2157592,2019,Effect of Heat Treatment and Titanium Addition on the Microstructure and Mechanical Properties of Cast Fe31Mn28 Ni15Al24.5Tix High-Entropy Alloys
121,Al0.774 Fe1 Mn0.903 Ni0.484 Ti0.026,,CAST,other,,,6.3,330.0,,,,,,,,,,,,10.1155/2019/2157592,2019,Effect of Heat Treatment and Titanium Addition on the Microstructure and Mechanical Properties of Cast Fe31Mn28 Ni15Al24.5Tix High-Entropy Alloys
121,Al0.774 Fe1 Mn0.903 Ni0.484 Ti0.097,,CAST,other,,,6.2,500.0,,,,,,,,,,,,10.1155/2019/2157592,2019,Effect of Heat Treatment and Titanium Addition on the Microstructure and Mechanical Properties of Cast Fe31Mn28 Ni15Al24.5Tix High-Entropy Alloys
121,Al0.774 Fe1 Mn0.903 Ni0.484,,ANNEAL,other,,,6.3,340.0,,,,,,,,,,,,10.1155/2019/2157592,2019,Effect of Heat Treatment and Titanium Addition on the Microstructure and Mechanical Properties of Cast Fe31Mn28 Ni15Al24.5Tix High-Entropy Alloys
121,Al0.774 Fe1 Mn0.903 Ni0.484 Ti0.026,,ANNEAL,other,,,6.3,410.0,,,,,,,,,,,,10.1155/2019/2157592,2019,Effect of Heat Treatment and Titanium Addition on the Microstructure and Mechanical Properties of Cast Fe31Mn28 Ni15Al24.5Tix High-Entropy Alloys
121,Al0.774 Fe1 Mn0.903 Ni0.484 Ti0.097,,ANNEAL,other,,,6.2,495.0,,,,,,,,,,,,10.1155/2019/2157592,2019,Effect of Heat Treatment and Titanium Addition on the Microstructure and Mechanical Properties of Cast Fe31Mn28 Ni15Al24.5Tix High-Entropy Alloys
121,Al0.774 Fe1 Mn0.903 Ni0.484,,ANNEAL,other,,,6.3,330.0,,,,,,,,,,,,10.1155/2019/2157592,2019,Effect of Heat Treatment and Titanium Addition on the Microstructure and Mechanical Properties of Cast Fe31Mn28 Ni15Al24.5Tix High-Entropy Alloys
121,Al0.774 Fe1 Mn0.903 Ni0.484 Ti0.026,,ANNEAL,other,,,6.3,330.0,,,,,,,,,,,,10.1155/2019/2157592,2019,Effect of Heat Treatment and Titanium Addition on the Microstructure and Mechanical Properties of Cast Fe31Mn28 Ni15Al24.5Tix High-Entropy Alloys
121,Al0.774 Fe1 Mn0.903 Ni0.484 Ti0.097,,ANNEAL,other,,,6.2,490.0,,,,,,,,,,,,10.1155/2019/2157592,2019,Effect of Heat Treatment and Titanium Addition on the Microstructure and Mechanical Properties of Cast Fe31Mn28 Ni15Al24.5Tix High-Entropy Alloys
122,Al1 C1 Co1 Cr1 Fe1 Ni1,FCC+BCC,POWDER,other,,,6.2,,,,,,,,,,,,,10.1080/00325899.2019.1576389,2019,Microstructural evolution and mechanical properties of AlCrFeNiCoC high entropy alloy produced via spark plasma sintering
123,Cr1 Cu1 Fe1 Ni1 Ti1,FCC+BCC,CAST,other,,,7.2,,,,,,,,,,,,,10.1007/s11106-019-00012-z,2019,"The Influence of Synthesis Conditions on the Phase Composition, Structure, and Properties of the High-Entropy Ti–Cr–Fe–Ni–Cu Alloy"
123,Cr1 Cu1 Fe1 Ni1 Ti1,FCC+BCC,WROUGHT,other,,,7.2,,,,,,,,,,,,,10.1007/s11106-019-00012-z,2019,"The Influence of Synthesis Conditions on the Phase Composition, Structure, and Properties of the High-Entropy Ti–Cr–Fe–Ni–Cu Alloy"
124,Co1 Cr1 Fe1 Mn1 Ni1,FCC,POWDER,other,0.03,7.753,8.0,435.0,C,25.0,1100.0,,47.0,,,,,,,10.1080/00325899.2018.1554834,2018,Microstructure and properties of CrMnFeCoNi high-entropy alloy prepared by mechanical alloying and spark plasma sintering
126,Al0.5 Cr1 Cu1 Fe1 Ni1,FCC,CAST,FCC,,,7.4,226.0,,,,,,,,185,,,,10.1007/s11665-018-3822-8,2018,Effect of Cold Deformation and Heat Treatment on the Microstructure and Mechanical Behavior of High Entropy Alloy CuCrFeNi2Al0.5
126,Al0.5 Cr1 Cu1 Fe1 Ni1,FCC,WROUGHT,FCC,,,7.4,287.0,,,,,,,,185,,,,10.1007/s11665-018-3822-8,2018,Effect of Cold Deformation and Heat Treatment on the Microstructure and Mechanical Behavior of High Entropy Alloy CuCrFeNi2Al0.5
127,Hf1 Mo1 Nb1 Ta1 Ti1 Zr1,BCC,CAST,BCC,,,9.9,,C,25.0,1512.0,,12.0,,,137,,,,10.3390/e21010015,2018,"Effects of Mo, Nb, Ta, Ti, and Zr on Mechanical Properties of Equiatomic Hf-Mo-Nb-Ta-Ti-Zr Alloys"
127,Hf1 Mo1 Ta1 Ti1 Zr1,BCC,CAST,BCC,,,10.2,,C,25.0,1600.0,,4.0,,,143,,,,10.3390/e21010015,2018,"Effects of Mo, Nb, Ta, Ti, and Zr on Mechanical Properties of Equiatomic Hf-Mo-Nb-Ta-Ti-Zr Alloys"
127,Hf1 Mo1 Nb1 Ti1 Zr1,BCC,CAST,BCC,,,8.7,,C,25.0,1351.0,,20.0,,,128,,,,10.3390/e21010015,2018,"Effects of Mo, Nb, Ta, Ti, and Zr on Mechanical Properties of Equiatomic Hf-Mo-Nb-Ta-Ti-Zr Alloys"
127,Hf1 Mo1 Nb1 Ta1 Zr1,BCC,CAST,BCC,,,10.9,,C,25.0,1524.0,,16.0,,,141,,,,10.3390/e21010015,2018,"Effects of Mo, Nb, Ta, Ti, and Zr on Mechanical Properties of Equiatomic Hf-Mo-Nb-Ta-Ti-Zr Alloys"
127,Hf1 Mo1 Nb1 Ta1 Ti1,BCC,CAST,BCC,,,10.8,,C,25.0,1369.0,,27.0,,,155,,,,10.3390/e21010015,2018,"Effects of Mo, Nb, Ta, Ti, and Zr on Mechanical Properties of Equiatomic Hf-Mo-Nb-Ta-Ti-Zr Alloys"
127,Hf1 Mo1 Nb1 Ta1 Ti1 Zr1,BCC,CAST,BCC,,,9.9,,C,800.0,1007.0,,,,,137,,,,10.3390/e21010015,2018,"Effects of Mo, Nb, Ta, Ti, and Zr on Mechanical Properties of Equiatomic Hf-Mo-Nb-Ta-Ti-Zr Alloys"
127,Hf1 Mo1 Ta1 Ti1 Zr1,BCC,CAST,BCC,,,10.2,,C,800.0,1045.0,,,,,143,,,,10.3390/e21010015,2018,"Effects of Mo, Nb, Ta, Ti, and Zr on Mechanical Properties of Equiatomic Hf-Mo-Nb-Ta-Ti-Zr Alloys"
127,Hf1 Mo1 Nb1 Ti1 Zr1,BCC,CAST,BCC,,,8.7,,C,800.0,829.0,,,,,128,,,,10.3390/e21010015,2018,"Effects of Mo, Nb, Ta, Ti, and Zr on Mechanical Properties of Equiatomic Hf-Mo-Nb-Ta-Ti-Zr Alloys"
127,Hf1 Mo1 Nb1 Ta1 Zr1,BCC,CAST,BCC,,,10.9,,C,800.0,1005.0,,,,,141,,,,10.3390/e21010015,2018,"Effects of Mo, Nb, Ta, Ti, and Zr on Mechanical Properties of Equiatomic Hf-Mo-Nb-Ta-Ti-Zr Alloys"
127,Hf1 Mo1 Nb1 Ta1 Ti1,BCC,CAST,BCC,,,10.8,,C,800.0,822.0,,,,,155,,,,10.3390/e21010015,2018,"Effects of Mo, Nb, Ta, Ti, and Zr on Mechanical Properties of Equiatomic Hf-Mo-Nb-Ta-Ti-Zr Alloys"
127,Hf1 Mo1 Nb1 Ta1 Ti1 Zr1,BCC,CAST,BCC,,,9.9,,C,1000.0,814.0,,,,,137,,,,10.3390/e21010015,2018,"Effects of Mo, Nb, Ta, Ti, and Zr on Mechanical Properties of Equiatomic Hf-Mo-Nb-Ta-Ti-Zr Alloys"
127,Hf1 Mo1 Ta1 Ti1 Zr1,BCC,CAST,BCC,,,10.2,,C,1000.0,855.0,,,,,143,,,,10.3390/e21010015,2018,"Effects of Mo, Nb, Ta, Ti, and Zr on Mechanical Properties of Equiatomic Hf-Mo-Nb-Ta-Ti-Zr Alloys"
127,Hf1 Mo1 Nb1 Ti1 Zr1,BCC,CAST,BCC,,,8.7,,C,1000.0,721.0,,,,,128,,,,10.3390/e21010015,2018,"Effects of Mo, Nb, Ta, Ti, and Zr on Mechanical Properties of Equiatomic Hf-Mo-Nb-Ta-Ti-Zr Alloys"
127,Hf1 Mo1 Nb1 Ta1 Zr1,BCC,CAST,BCC,,,10.9,,C,1000.0,927.0,,,,,141,,,,10.3390/e21010015,2018,"Effects of Mo, Nb, Ta, Ti, and Zr on Mechanical Properties of Equiatomic Hf-Mo-Nb-Ta-Ti-Zr Alloys"
127,Hf1 Mo1 Nb1 Ta1 Ti1,BCC,CAST,BCC,,,10.8,,C,1000.0,778.0,,,,,155,,,,10.3390/e21010015,2018,"Effects of Mo, Nb, Ta, Ti, and Zr on Mechanical Properties of Equiatomic Hf-Mo-Nb-Ta-Ti-Zr Alloys"
127,Hf1 Mo1 Nb1 Ta1 Ti1 Zr1,BCC,CAST,BCC,,,9.9,,C,1200.0,556.0,,,,,137,,,,10.3390/e21010015,2018,"Effects of Mo, Nb, Ta, Ti, and Zr on Mechanical Properties of Equiatomic Hf-Mo-Nb-Ta-Ti-Zr Alloys"
127,Hf1 Mo1 Ta1 Ti1 Zr1,BCC,CAST,BCC,,,10.2,,C,1200.0,404.0,,,,,143,,,,10.3390/e21010015,2018,"Effects of Mo, Nb, Ta, Ti, and Zr on Mechanical Properties of Equiatomic Hf-Mo-Nb-Ta-Ti-Zr Alloys"
127,Hf1 Mo1 Nb1 Ti1 Zr1,BCC,CAST,BCC,,,8.7,,C,1200.0,301.0,,,,,128,,,,10.3390/e21010015,2018,"Effects of Mo, Nb, Ta, Ti, and Zr on Mechanical Properties of Equiatomic Hf-Mo-Nb-Ta-Ti-Zr Alloys"
127,Hf1 Mo1 Nb1 Ta1 Zr1,BCC,CAST,BCC,,,10.9,,C,1200.0,694.0,,,,,141,,,,10.3390/e21010015,2018,"Effects of Mo, Nb, Ta, Ti, and Zr on Mechanical Properties of Equiatomic Hf-Mo-Nb-Ta-Ti-Zr Alloys"
127,Hf1 Mo1 Nb1 Ta1 Ti1,BCC,CAST,BCC,,,10.8,,C,1200.0,699.0,,,,,155,,,,10.3390/e21010015,2018,"Effects of Mo, Nb, Ta, Ti, and Zr on Mechanical Properties of Equiatomic Hf-Mo-Nb-Ta-Ti-Zr Alloys"
127,Hf1 Mo1 Nb1 Ta1 Zr1,BCC,CAST,BCC,,,10.9,,C,1400.0,278.0,,,,,141,,,,10.3390/e21010015,2018,"Effects of Mo, Nb, Ta, Ti, and Zr on Mechanical Properties of Equiatomic Hf-Mo-Nb-Ta-Ti-Zr Alloys"
127,Hf1 Mo1 Nb1 Ta1 Ti1,BCC,CAST,BCC,,,10.8,,C,1400.0,367.0,,,,,155,,,,10.3390/e21010015,2018,"Effects of Mo, Nb, Ta, Ti, and Zr on Mechanical Properties of Equiatomic Hf-Mo-Nb-Ta-Ti-Zr Alloys"
128,Co1 Cr1 Fe1 Ni1,FCC,POWDER,FCC,0.0276,,8.2,,,,,,,,,226,,,,10.3390/coatings9010016,2018,Microstructure and Properties of CoCrFeNi(WC) High-Entropy Alloy Coatings Prepared Using Mechanical Alloying and Hot Pressing Sintering
128,C0.111 Co1 Cr1 Fe1 Ni1 W0.111,FCC,POWDER,FCC,0.0189,7.24 ,8.5,475.0,,,,,,,,,,,,10.3390/coatings9010016,2018,Microstructure and Properties of CoCrFeNi(WC) High-Entropy Alloy Coatings Prepared Using Mechanical Alloying and Hot Pressing Sintering
128,C0.429 Co1 Cr1 Fe1 Ni1 W0.429,FCC,POWDER,FCC,0.0182,8.39 ,9.1,531.0,,,,,,,,,,,,10.3390/coatings9010016,2018,Microstructure and Properties of CoCrFeNi(WC) High-Entropy Alloy Coatings Prepared Using Mechanical Alloying and Hot Pressing Sintering
129,Al0.267 Co1 Cr0.667 Fe0.667 Ni0.667 Ti0.2,FCC+BCC,POWDER,other,,,7.3,515.0,C,25.0,2012.0,,,17.52 ,,,,,,10.5755/j01.ms.25.3.19452,2019,Enhancement of Mechanical Properties and Corrosion Resistance of Ultra-Fine Grain Al0.4FeCrCo1.5NiTi0.3 High-Entropy Alloy by MA and SPS Technologies
130,Hf1 Nb1 Ta1 Ti1 Zr1,BCC,OTHER,BCC,,,9.9,,T,25.0,1438.0,,,,91.5,107,,,,10.1007/s11661-018-4646-8,2018,Effect of Cold Deformation and Annealing on the Microstructure and Tensile Properties of a HfNbTaTiZr Refractory High Entropy Alloy
130,Hf1 Nb1 Ta1 Ti1 Zr1,BCC,OTHER,BCC,,,9.9,,T,25.0,1159.0,,,,99.2,107,,,,10.1007/s11661-018-4646-8,2018,Effect of Cold Deformation and Annealing on the Microstructure and Tensile Properties of a HfNbTaTiZr Refractory High Entropy Alloy
130,Hf1 Nb1 Ta1 Ti1 Zr1,BCC,OTHER,BCC,,,9.9,,T,25.0,1134.0,,,,109.1,107,,,,10.1007/s11661-018-4646-8,2018,Effect of Cold Deformation and Annealing on the Microstructure and Tensile Properties of a HfNbTaTiZr Refractory High Entropy Alloy
130,Hf1 Nb1 Ta1 Ti1 Zr1,BCC,OTHER,BCC,,,9.9,,T,25.0,1094.0,,,,105.3,107,,,,10.1007/s11661-018-4646-8,2018,Effect of Cold Deformation and Annealing on the Microstructure and Tensile Properties of a HfNbTaTiZr Refractory High Entropy Alloy
130,Hf1 Nb1 Ta1 Ti1 Zr1,BCC,OTHER,BCC,,,9.9,,T,25.0,1071.0,,,,91.6,107,,,,10.1007/s11661-018-4646-8,2018,Effect of Cold Deformation and Annealing on the Microstructure and Tensile Properties of a HfNbTaTiZr Refractory High Entropy Alloy
130,Hf1 Nb1 Ta1 Ti1 Zr1,BCC,OTHER,BCC,24.4,,9.9,,T,25.0,1107.0,,,,92.6,107,,,,10.1007/s11661-018-4646-8,2018,Effect of Cold Deformation and Annealing on the Microstructure and Tensile Properties of a HfNbTaTiZr Refractory High Entropy Alloy
130,Hf1 Nb1 Ta1 Ti1 Zr1,BCC,OTHER,BCC,31.3,,9.9,,T,25.0,1115.0,,,,92.6,107,,,,10.1007/s11661-018-4646-8,2018,Effect of Cold Deformation and Annealing on the Microstructure and Tensile Properties of a HfNbTaTiZr Refractory High Entropy Alloy
130,Hf1 Nb1 Ta1 Ti1 Zr1,BCC,OTHER,BCC,38.4,,9.9,,T,25.0,1114.0,,,,101.3,107,,,,10.1007/s11661-018-4646-8,2018,Effect of Cold Deformation and Annealing on the Microstructure and Tensile Properties of a HfNbTaTiZr Refractory High Entropy Alloy
130,Hf1 Nb1 Ta1 Ti1 Zr1,BCC,OTHER,BCC,50.1,,9.9,,,,,,,,,107,,,,10.1007/s11661-018-4646-8,2018,Effect of Cold Deformation and Annealing on the Microstructure and Tensile Properties of a HfNbTaTiZr Refractory High Entropy Alloy
130,Hf1 Nb1 Ta1 Ti1 Zr1,BCC,OTHER,BCC,21.9,,9.9,,,,,,,,,107,,,,10.1007/s11661-018-4646-8,2018,Effect of Cold Deformation and Annealing on the Microstructure and Tensile Properties of a HfNbTaTiZr Refractory High Entropy Alloy
130,Hf1 Nb1 Ta1 Ti1 Zr1,BCC,OTHER,BCC,75.5,,9.9,,,,,,,,,107,,,,10.1007/s11661-018-4646-8,2018,Effect of Cold Deformation and Annealing on the Microstructure and Tensile Properties of a HfNbTaTiZr Refractory High Entropy Alloy
131,Al1 Nb1 Ti1 Zr1,B2,CAST,other,250.0,5.85,5.7,422.0,C,25.0,1509.0,,8.6,,,,,,,10.1080/02670836.2018.1446267,2018,Microstructure and mechanical properties of a novel refractory AlNbTiZr high-entropy alloy
131,Al1 Nb1 Ti1 Zr1,B2+Sec.,ANNEAL,other,,,5.7,418.0,C,25.0,1579.0,,17.8,,,,,,,10.1080/02670836.2018.1446267,2018,Microstructure and mechanical properties of a novel refractory AlNbTiZr high-entropy alloy
132,Al1 Nb1 Ti1 V1 Zr0.5,,,other,,5.64,5.6,,C,25.0,1480.0,,50.0,,,,,,,10.1016/j.matlet.2015.08.099,2015,An AlNbTiVZr0.5 high-entropy alloy combining high specific strength and good ductility
133,Al1 Nb1 Ti1 Zr1,,,other,,5.79,5.7,539.6,C,25.0,1080.0,,5.9,,,,,,,10.1179/1743284715Y.0000000032,2015,"Effect of Al on structure and mechanical properties of AlxNbTiVZr (x = 0, 0.5, 1, 1.5) high entropy alloys"
134,Nb1 Ti1 V1 Zr1,,,other,,6.52,6.5,335.0,C,25.0,1105.0,,50.0,,,,,,,10.1016/j.actamat.2012.11.032,2013,"Low-density, refractory multi-principal element alloys of the Cr–Nb–Ti–V–Zr system: Microstructure and phase analysis"
134,Cr1 Nb1 Ti1 Zr1,,,other,,6.67,6.6,418.0,C,25.0,1260.0,,6.0,,,,,,,10.1016/j.actamat.2012.11.032,2013,"Low-density, refractory multi-principal element alloys of the Cr–Nb–Ti–V–Zr system: Microstructure and phase analysis"
264,Al1 Cr1 Fe1 Mo0.5 Ni1,BCC+B2,CAST,other,,,6.8,623.7,C,25.0,1914.1,4023.6,,27.9,,,,,,10.1088/0256-307X/35/3/036102,2018,Microstructures and Mechanical Properties of AlCrFeNiMo 0.5 Ti  x  High Entropy Alloys
264,Al1 Cr1 Fe1 Mo0.5 Ni1 Ti0.25,BCC+B2,CAST,other,,,6.6,712.0,C,25.0,2161.7,3641.5,,14.3,,,,,,10.1088/0256-307X/35/3/036102,2018,Microstructures and Mechanical Properties of AlCrFeNiMo 0.5 Ti  x  High Entropy Alloys
264,Al1 Cr1 Fe1 Mo0.5 Ni1 Ti0.4,BCC+B2,CAST,other,,,6.5,731.9,C,25.0,2185.1,3673.4,,14.8,,,,,,10.1088/0256-307X/35/3/036102,2018,Microstructures and Mechanical Properties of AlCrFeNiMo 0.5 Ti  x  High Entropy Alloys
264,Al1 Cr1 Fe1 Mo0.5 Ni1 Ti0.5,BCC+B2,CAST,other,,,6.5,751.7,C,25.0,2228.7,3166.2,,10.4,,,,,,10.1088/0256-307X/35/3/036102,2018,Microstructures and Mechanical Properties of AlCrFeNiMo 0.5 Ti  x  High Entropy Alloys
264,Al1 Cr1 Fe1 Mo0.5 Ni1 Ti0.6,BCC+B2,CAST,other,,,6.4,756.1,C,25.0,1314.5,1314.5,,,,,,,,10.1088/0256-307X/35/3/036102,2018,Microstructures and Mechanical Properties of AlCrFeNiMo 0.5 Ti  x  High Entropy Alloys
264,Al1 Cr1 Fe1 Mo0.5 Ni1 Ti0.75,BCC+B2,CAST,other,,,6.4,766.2,C,25.0,618.8,618.8,,,,,,,,10.1088/0256-307X/35/3/036102,2018,Microstructures and Mechanical Properties of AlCrFeNiMo 0.5 Ti  x  High Entropy Alloys
265,Al1 Cr1 Mo1 Nb1,Other,ANNEAL,other,,,7.2,,,,,,,,,,,,,10.1016/j.matdes.2018.06.003,2018,"Phase equilibria, mechanical properties and design of quaternary refractory high entropy alloys"
265,Al1 Cr1 Mo1 Nb1,Other,CAST,other,,,7.2,,,,,,,,,,,,,10.1016/j.matdes.2018.06.003,2018,"Phase equilibria, mechanical properties and design of quaternary refractory high entropy alloys"
265,Al1 Hf1 Nb1 Ti1,B2,ANNEAL,other,,,7.7,,,,,,,,,,,,,10.1016/j.matdes.2018.06.003,2018,"Phase equilibria, mechanical properties and design of quaternary refractory high entropy alloys"
265,Al1 Hf1 Nb1 Ti1,B2,CAST,other,,,7.7,,,,,,,,,,,,,10.1016/j.matdes.2018.06.003,2018,"Phase equilibria, mechanical properties and design of quaternary refractory high entropy alloys"
265,Al1 Hf1 Ta1 Ti1,B2,ANNEAL,other,,,9.7,,,,,,,,,,,,,10.1016/j.matdes.2018.06.003,2018,"Phase equilibria, mechanical properties and design of quaternary refractory high entropy alloys"
265,Al1 Hf1 Ta1 Ti1,B2,CAST,other,,,9.7,,,,,,,,,,,,,10.1016/j.matdes.2018.06.003,2018,"Phase equilibria, mechanical properties and design of quaternary refractory high entropy alloys"
265,Al1 Mo1 Nb1 Ti1,BCC+Sec.,ANNEAL,other,,,6.5,,,,,,,,,,,,,10.1016/j.matdes.2018.06.003,2018,"Phase equilibria, mechanical properties and design of quaternary refractory high entropy alloys"
265,Al1 Mo1 Nb1 Ti1,BCC,CAST,BCC,,,6.5,509.0,,,,,,,,151,,,,10.1016/j.matdes.2018.06.003,2018,"Phase equilibria, mechanical properties and design of quaternary refractory high entropy alloys"
265,Al1 Nb1 Ta1 Ti1,BCC+Sec.,ANNEAL,other,,,8.2,,,,,,,,,,,,,10.1016/j.matdes.2018.06.003,2018,"Phase equilibria, mechanical properties and design of quaternary refractory high entropy alloys"
265,Al1 Nb1 Ta1 Ti1,BCC,CAST,BCC,,,8.2,458.0,,,,,,,,120,,,,10.1016/j.matdes.2018.06.003,2018,"Phase equilibria, mechanical properties and design of quaternary refractory high entropy alloys"
265,Cr1 Mo1 Ta1 Ti1,BCC,ANNEAL,BCC,,,9.9,555.0,,,,,,,,219,,,,10.1016/j.matdes.2018.06.003,2018,"Phase equilibria, mechanical properties and design of quaternary refractory high entropy alloys"
265,Cr1 Mo1 Ta1 Ti1,BCC,CAST,BCC,,,9.9,539.0,,,,,,,,219,,,,10.1016/j.matdes.2018.06.003,2018,"Phase equilibria, mechanical properties and design of quaternary refractory high entropy alloys"
265,Cr1 Nb1 Ta1 Ti1,BCC+Sec.,ANNEAL,other,,,9.4,,,,,,,,,,,,,10.1016/j.matdes.2018.06.003,2018,"Phase equilibria, mechanical properties and design of quaternary refractory high entropy alloys"
265,Cr1 Nb1 Ta1 Ti1,BCC,CAST,BCC,,,9.4,495.0,,,,,,,,162,,,,10.1016/j.matdes.2018.06.003,2018,"Phase equilibria, mechanical properties and design of quaternary refractory high entropy alloys"
265,Cr1 Nb1 Ti1 W1,BCC+Sec.,ANNEAL,other,,,9.9,630.0,,,,,,,,,,,,10.1016/j.matdes.2018.06.003,2018,"Phase equilibria, mechanical properties and design of quaternary refractory high entropy alloys"
265,Cr1 Nb1 Ti1 W1,BCC,CAST,BCC,,,9.9,630.0,,,,,,,,217,,,,10.1016/j.matdes.2018.06.003,2018,"Phase equilibria, mechanical properties and design of quaternary refractory high entropy alloys"
265,Hf1 Nb1 Ta1 Ti1,BCC,ANNEAL,BCC,,,10.9,280.0,,,,,,,,119,,,,10.1016/j.matdes.2018.06.003,2018,"Phase equilibria, mechanical properties and design of quaternary refractory high entropy alloys"
265,Hf1 Nb1 Ta1 Ti1,BCC,CAST,BCC,,,10.9,270.0,,,,,,,,119,,,,10.1016/j.matdes.2018.06.003,2018,"Phase equilibria, mechanical properties and design of quaternary refractory high entropy alloys"
265,Mo1 Nb1 Ta1 Ti1 W1,BCC,ANNEAL,BCC,,,11.8,482.0,,,,,,,,222,,,,10.1016/j.matdes.2018.06.003,2018,"Phase equilibria, mechanical properties and design of quaternary refractory high entropy alloys"
265,Mo1 Nb1 Ta1 Ti1 W1,BCC,CAST,BCC,,,11.8,446.0,,,,,,,,222,,,,10.1016/j.matdes.2018.06.003,2018,"Phase equilibria, mechanical properties and design of quaternary refractory high entropy alloys"
265,Mo1 Nb1 Ta1 Ti1,BCC,ANNEAL,BCC,,,10.0,407.0,,,,,,,,179,,,,10.1016/j.matdes.2018.06.003,2018,"Phase equilibria, mechanical properties and design of quaternary refractory high entropy alloys"
265,Mo1 Nb1 Ta1 Ti1,BCC,CAST,BCC,,,10.0,431.0,,,,,,,,179,,,,10.1016/j.matdes.2018.06.003,2018,"Phase equilibria, mechanical properties and design of quaternary refractory high entropy alloys"