IDENTIFIER: Reference ID,FORMULA,PROPERTY: Microstructure,PROPERTY: Processing method,PROPERTY: BCC/FCC/other,PROPERTY: grain size ($\mu$m),PROPERTY: Exp. Density (g/cm$^3$),PROPERTY: Computed Density (g/cm$^3$),PROPERTY: HV,PROPERTY: Type of test,PROPERTY: Test temperature ($^\circ$C),PROPERTY: YS (MPa),PROPERTY: UTS (MPa),PROPERTY: Elongation (%),PROPERTY: Elongation plastic (%),PROPERTY: Exp. Young modulus (GPa),PROPERTY: Computed Young modulus (GPa),PROPERTY: O content (wppm),PROPERTY: N content (wppm),PROPERTY: C content (wppm),REFERENCE: doi,REFERENCE: year,REFERENCE: title
205,Co1 Cr1 Fe1 Mn1 Ni1,FCC,WROUGHT,FCC,4.0,,8.1,,T,25.0,1050.0,,8.0,,,219,,,,10.1016/j.msea.2019.04.025,2019,Regulating the strength and ductility of a cold rolled FeCrCoMnNi high-entropy alloy via annealing treatment
205,Co1 Cr1 Fe1 Mn1 Ni1,FCC,WROUGHT,FCC,8.0,,8.1,,T,25.0,560.0,,49.0,,,219,,,,10.1016/j.msea.2019.04.025,2019,Regulating the strength and ductility of a cold rolled FeCrCoMnNi high-entropy alloy via annealing treatment
205,Co1 Cr1 Fe1 Mn1 Ni1,FCC,WROUGHT,FCC,8.0,,8.1,,T,25.0,520.0,,47.0,,,219,,,,10.1016/j.msea.2019.04.025,2019,Regulating the strength and ductility of a cold rolled FeCrCoMnNi high-entropy alloy via annealing treatment
205,Co1 Cr1 Fe1 Mn1 Ni1,FCC,WROUGHT,FCC,10.0,,8.1,,T,25.0,320.0,,59.0,,,219,,,,10.1016/j.msea.2019.04.025,2019,Regulating the strength and ductility of a cold rolled FeCrCoMnNi high-entropy alloy via annealing treatment
205,Co1 Cr1 Fe1 Mn1 Ni1,FCC,WROUGHT,FCC,20.0,,8.1,,T,25.0,280.0,,62.0,,,219,,,,10.1016/j.msea.2019.04.025,2019,Regulating the strength and ductility of a cold rolled FeCrCoMnNi high-entropy alloy via annealing treatment
206,Co0.5 Fe0.5 Mo0.1 Ni1 V0.25,FCC,CAST,FCC,,,8.4,,T,-196.0,419.0,,34.6,,,202,,,,10.1016/j.scriptamat.2019.02.038,2019,A promising CoFeNi2V0.5Mo0.2 high entropy alloy with exceptional ductility
206,Co0.5 Fe0.5 Mo0.1 Ni1 V0.25,FCC,CAST,FCC,,,8.4,,T,-70.0,350.0,,28.8,,,202,,,,10.1016/j.scriptamat.2019.02.038,2019,A promising CoFeNi2V0.5Mo0.2 high entropy alloy with exceptional ductility
206,Co0.5 Fe0.5 Mo0.1 Ni1 V0.25,FCC,CAST,FCC,,,8.4,,T,20.0,252.0,,82.1,,,202,,,,10.1016/j.scriptamat.2019.02.038,2019,A promising CoFeNi2V0.5Mo0.2 high entropy alloy with exceptional ductility
206,Co0.5 Fe0.5 Mo0.1 Ni1 V0.25,FCC,CAST,FCC,,,8.4,,T,600.0,214.0,,189.2,,,202,,,,10.1016/j.scriptamat.2019.02.038,2019,A promising CoFeNi2V0.5Mo0.2 high entropy alloy with exceptional ductility
206,Co0.5 Fe0.5 Mo0.1 Ni1 V0.25,FCC,CAST,FCC,,,8.4,,T,700.0,212.0,,154.3,,,202,,,,10.1016/j.scriptamat.2019.02.038,2019,A promising CoFeNi2V0.5Mo0.2 high entropy alloy with exceptional ductility
206,Co0.5 Fe0.5 Mo0.1 Ni1 V0.25,FCC,CAST,FCC,,,8.4,,T,800.0,187.0,,119.5,,,202,,,,10.1016/j.scriptamat.2019.02.038,2019,A promising CoFeNi2V0.5Mo0.2 high entropy alloy with exceptional ductility
207,Al0.3 Co1 Cr1 Fe1 Ni1,FCC,CAST,FCC,,,7.8,132.0,C,300.0,,,,,,214,,,,10.1088/2053-1591/ab0597,2019,Effect of cooling rate on microstructure and mechanical properties of Al0.3CoCrFeNi high-entropy alloy
207,Al0.3 Co1 Cr1 Fe1 Ni1,FCC,CAST,FCC,,,7.8,147.0,C,340.0,,,,,,214,,,,10.1088/2053-1591/ab0597,2019,Effect of cooling rate on microstructure and mechanical properties of Al0.3CoCrFeNi high-entropy alloy
207,Al0.3 Co1 Cr1 Fe1 Ni1,FCC,CAST,FCC,,,7.8,165.0,C,430.0,,,,,,214,,,,10.1088/2053-1591/ab0597,2019,Effect of cooling rate on microstructure and mechanical properties of Al0.3CoCrFeNi high-entropy alloy
209,Al1 Co1 Cr1 Fe1 Ni1,,CAST,other,204.0,,7.1,519.0,C,25.0,1631.0,,16.0,,,194,,,,10.1016/j.matchar.2019.03.006,2019,The strengthening effects of relatively lightweight AlCoCrFeNi high entropy alloy
209,Al1 Co1 Cr1 Fe1 Ni1,,CAST,other,185.0,,7.1,493.0,C,25.0,1209.0,,23.0,,,194,,,,10.1016/j.matchar.2019.03.006,2019,The strengthening effects of relatively lightweight AlCoCrFeNi high entropy alloy
210,Co0.318 Cr0.227 Fe1 Mo0.091 Ni0.182,,WROUGHT,other,4.4,,8.2,,T,25.0,443.0,840.0,61.6,,,224,,,,10.1016/j.jallcom.2018.12.040,2019,Effect of μ-precipitates on the microstructure and mechanical properties of non-equiatomic CoCrFeNiMo medium-entropy alloys
210,Co0.327 Cr0.227 Fe1 Mo0.136 Ni0.127,,WROUGHT,other,3.2,,8.2,,T,25.0,711.0,1096.0,38.3,,,227,,,,10.1016/j.jallcom.2018.12.040,2019,Effect of μ-precipitates on the microstructure and mechanical properties of non-equiatomic CoCrFeNiMo medium-entropy alloys
210,Co0.318 Cr0.227 Fe1 Mo0.091 Ni0.182,,WROUGHT,other,26.3,,8.2,,T,25.0,301.0,718.0,77.5,,,224,,,,10.1016/j.jallcom.2018.12.040,2019,Effect of μ-precipitates on the microstructure and mechanical properties of non-equiatomic CoCrFeNiMo medium-entropy alloys
210,Co0.327 Cr0.227 Fe1 Mo0.136 Ni0.127,,WROUGHT,other,4.8,,8.2,,T,25.0,684.0,1078.0,48.1,,,227,,,,10.1016/j.jallcom.2018.12.040,2019,Effect of μ-precipitates on the microstructure and mechanical properties of non-equiatomic CoCrFeNiMo medium-entropy alloys
210,Co0.318 Cr0.227 Fe1 Mo0.091 Ni0.182,,WROUGHT,other,70.1,,8.2,,T,25.0,261.0,673.0,86.6,,,224,,,,10.1016/j.jallcom.2018.12.040,2019,Effect of μ-precipitates on the microstructure and mechanical properties of non-equiatomic CoCrFeNiMo medium-entropy alloys
210,Co0.327 Cr0.227 Fe1 Mo0.136 Ni0.127,,WROUGHT,other,5.4,,8.2,,T,25.0,506.0,933.0,59.3,,,227,,,,10.1016/j.jallcom.2018.12.040,2019,Effect of μ-precipitates on the microstructure and mechanical properties of non-equiatomic CoCrFeNiMo medium-entropy alloys
210,Co0.318 Cr0.227 Fe1 Mo0.091 Ni0.182,,WROUGHT,other,136.5,,8.2,,T,25.0,231.0,638.0,87.2,,,224,,,,10.1016/j.jallcom.2018.12.040,2019,Effect of μ-precipitates on the microstructure and mechanical properties of non-equiatomic CoCrFeNiMo medium-entropy alloys
210,Co0.327 Cr0.227 Fe1 Mo0.136 Ni0.127,,WROUGHT,other,120.6,,8.2,,T,25.0,296.0,693.0,63.2,,,227,,,,10.1016/j.jallcom.2018.12.040,2019,Effect of μ-precipitates on the microstructure and mechanical properties of non-equiatomic CoCrFeNiMo medium-entropy alloys
211,Co1 Cr1 Fe1 Mn1 Ni1,FCC,ANNEAL,FCC,300.0,,8.1,,,,,,,,,219,,,,10.1016/j.jallcom.2018.11.181,2019,Microstructure and mechanical properties of a CoCrFeMnNi high entropy alloy processed by milling and spark plasma sintering
211,Co1 Cr1 Fe1 Mn1 Ni1,FCC,POWDER,FCC,4.2,,8.1,,,,,,,,,219,,,,10.1016/j.jallcom.2018.11.181,2019,Microstructure and mechanical properties of a CoCrFeMnNi high entropy alloy processed by milling and spark plasma sintering
211,Co1 Cr1 Fe1 Mn1 Ni1,FCC,POWDER,FCC,1.3,,8.1,,,,,,,,,219,,,,10.1016/j.jallcom.2018.11.181,2019,Microstructure and mechanical properties of a CoCrFeMnNi high entropy alloy processed by milling and spark plasma sintering
212,Mo1 Nb1 Ta1 W1,BCC,POWDER,BCC,,,13.7,,C,25.0,1217.0,,7.6,3.8,,258,,,,10.1007/s10853-018-03280-z,2019,Effect of Si additions on microstructure and mechanical properties of refractory NbTaWMo high-entropy alloys
212,Mo1 Nb1 Si0.25 Ta1 W1,,POWDER,other,,,13.0,,C,25.0,1826.0,,16.7,10.5,,245,,,,10.1007/s10853-018-03280-z,2019,Effect of Si additions on microstructure and mechanical properties of refractory NbTaWMo high-entropy alloys
212,Mo1 Nb1 Si0.5 Ta1 W1,,POWDER,other,,,12.4,,C,25.0,1883.0,,11.0,5.8,,234,,,,10.1007/s10853-018-03280-z,2019,Effect of Si additions on microstructure and mechanical properties of refractory NbTaWMo high-entropy alloys
212,Mo1 Nb1 Si0.75 Ta1 W1,,POWDER,other,,,11.9,,C,25.0,2483.0,,6.3,1.6,,224,,,,10.1007/s10853-018-03280-z,2019,Effect of Si additions on microstructure and mechanical properties of refractory NbTaWMo high-entropy alloys
212,Mo1 Nb1 Si0.25 Ta1 W1,,POWDER,other,,,13.0,,C,1200.0,1071.0,,22.5,13.11,,245,,,,10.1007/s10853-018-03280-z,2019,Effect of Si additions on microstructure and mechanical properties of refractory NbTaWMo high-entropy alloys
213,Cr1 Cu1 Fe1 Mn1 Ni1,,CAST,other,,,8.1,,T,25.0,615.0,950.0,14.0,,,204,,,,10.1007/s11665-019-04003-4,2019,Microstructure and Mechanical Properties of a Multiphase FeCrCuMnNi High-Entropy Alloy
213,Cr1 Cu1 Fe1 Mn1 Ni1,,ANNEAL,other,,,8.1,,,,,,,,,204,,,,10.1007/s11665-019-04003-4,2019,Microstructure and Mechanical Properties of a Multiphase FeCrCuMnNi High-Entropy Alloy
214,Mo1 Nb1 Re0.5 W1,BCC,CAST,BCC,,,13.9,473.0,C,25.0,896.0,,10.4,7.08,,308,,,,10.1016/j.jallcom.2018.11.111,2019,"Microstructure evolution, mechanical properties and strengthening mechanism of refractory high-entropy alloy matrix composites with addition of TaC"
214,C0.2 Mo1 Nb1 Re0.5 Ta0.2 W1,,CAST,other,,,13.4,510.0,C,25.0,1074.0,,12.1,8.33,,,,,,10.1016/j.jallcom.2018.11.111,2019,"Microstructure evolution, mechanical properties and strengthening mechanism of refractory high-entropy alloy matrix composites with addition of TaC"
214,C0.4 Mo1 Nb1 Re0.5 Ta0.4 W1,,CAST,other,,,13.1,558.0,C,25.0,1144.0,,12.7,8.81,,,,,,10.1016/j.jallcom.2018.11.111,2019,"Microstructure evolution, mechanical properties and strengthening mechanism of refractory high-entropy alloy matrix composites with addition of TaC"
214,C0.5 Mo1 Nb1 Re0.5 Ta0.5 W1,,CAST,other,,,12.9,583.0,C,25.0,1202.0,,14.2,10.25,,,,,,10.1016/j.jallcom.2018.11.111,2019,"Microstructure evolution, mechanical properties and strengthening mechanism of refractory high-entropy alloy matrix composites with addition of TaC"
214,C0.6 Mo1 Nb1 Re0.5 Ta0.6 W1,,CAST,other,,,12.8,615.0,C,25.0,1241.0,,13.8,9.64,,,,,,10.1016/j.jallcom.2018.11.111,2019,"Microstructure evolution, mechanical properties and strengthening mechanism of refractory high-entropy alloy matrix composites with addition of TaC"
215,Al0.278 Co0.694 Cr0.222 Fe0.417 Ni1 Ti0.167,FCC,ANNEAL,FCC,,,7.7,,T,23.0,520.0,696.0,49.0,,,192,,,,10.3390/e21020169,2019,Microstructure and Mechanical Properties of Precipitate Strengthened High Entropy Alloy Al10Co25Cr8Fe15Ni36Ti6 with Additions of Hafnium and Molybdenum
215,Al0.278 Co0.694 Cr0.222 Fe0.417 Ni1 Ti0.167,FCC,ANNEAL,FCC,,,7.7,,T,600.0,470.0,561.0,11.0,,,192,,,,10.3390/e21020169,2019,Microstructure and Mechanical Properties of Precipitate Strengthened High Entropy Alloy Al10Co25Cr8Fe15Ni36Ti6 with Additions of Hafnium and Molybdenum
215,Al0.278 Co0.694 Cr0.222 Fe0.417 Ni1 Ti0.167,FCC,ANNEAL,FCC,,,7.7,,T,700.0,461.0,560.0,9.0,,,192,,,,10.3390/e21020169,2019,Microstructure and Mechanical Properties of Precipitate Strengthened High Entropy Alloy Al10Co25Cr8Fe15Ni36Ti6 with Additions of Hafnium and Molybdenum
215,Al0.278 Co0.694 Cr0.222 Fe0.417 Ni1 Ti0.167,FCC,ANNEAL,FCC,,,7.7,,T,800.0,445.0,536.0,6.0,,,192,,,,10.3390/e21020169,2019,Microstructure and Mechanical Properties of Precipitate Strengthened High Entropy Alloy Al10Co25Cr8Fe15Ni36Ti6 with Additions of Hafnium and Molybdenum
215,Al0.278 Co0.694 Cr0.222 Fe0.417 Ni1 Ti0.167,FCC,ANNEAL,FCC,,,7.7,,T,900.0,219.0,312.0,8.0,,,192,,,,10.3390/e21020169,2019,Microstructure and Mechanical Properties of Precipitate Strengthened High Entropy Alloy Al10Co25Cr8Fe15Ni36Ti6 with Additions of Hafnium and Molybdenum
215,Al0.278 Co0.694 Cr0.222 Fe0.417 Ni1 Ti0.167,FCC,ANNEAL,FCC,,,7.7,,T,23.0,627.0,1197.0,27.0,,,192,,,,10.3390/e21020169,2019,Microstructure and Mechanical Properties of Precipitate Strengthened High Entropy Alloy Al10Co25Cr8Fe15Ni36Ti6 with Additions of Hafnium and Molybdenum
215,Al0.278 Co0.694 Cr0.222 Fe0.417 Ni1 Ti0.167,FCC,ANNEAL,FCC,,,7.7,,T,600.0,594.0,1006.0,12.0,,,192,,,,10.3390/e21020169,2019,Microstructure and Mechanical Properties of Precipitate Strengthened High Entropy Alloy Al10Co25Cr8Fe15Ni36Ti6 with Additions of Hafnium and Molybdenum
215,Al0.278 Co0.694 Cr0.222 Fe0.417 Ni1 Ti0.167,FCC,ANNEAL,FCC,,,7.7,,T,700.0,547.0,840.0,17.0,,,192,,,,10.3390/e21020169,2019,Microstructure and Mechanical Properties of Precipitate Strengthened High Entropy Alloy Al10Co25Cr8Fe15Ni36Ti6 with Additions of Hafnium and Molybdenum
215,Al0.278 Co0.694 Cr0.222 Fe0.417 Ni1 Ti0.167,FCC,ANNEAL,FCC,,,7.7,,T,800.0,399.0,575.0,20.0,,,192,,,,10.3390/e21020169,2019,Microstructure and Mechanical Properties of Precipitate Strengthened High Entropy Alloy Al10Co25Cr8Fe15Ni36Ti6 with Additions of Hafnium and Molybdenum
215,Al0.278 Co0.694 Cr0.222 Fe0.417 Ni1 Ti0.167,FCC,ANNEAL,FCC,,,7.7,,T,900.0,243.0,319.0,34.0,,,192,,,,10.3390/e21020169,2019,Microstructure and Mechanical Properties of Precipitate Strengthened High Entropy Alloy Al10Co25Cr8Fe15Ni36Ti6 with Additions of Hafnium and Molybdenum
216,Co0.286 Cr0.429 Fe1 Mn0.143 Ni0.714 V0.286,FCC,WROUGHT,FCC,8.7,,7.9,,T,25.0,401.0,717.0,49.0,,,209,,,,10.1016/j.msea.2018.12.077,2019,Effect of grain size on the tensile behavior of V10Cr15Mn5Fe35Co10Ni25 high entropy alloy
216,Co0.286 Cr0.429 Fe1 Mn0.143 Ni0.714 V0.286,FCC,WROUGHT,FCC,10.4,,7.9,,T,25.0,350.0,690.0,50.0,,,209,,,,10.1016/j.msea.2018.12.077,2019,Effect of grain size on the tensile behavior of V10Cr15Mn5Fe35Co10Ni25 high entropy alloy
216,Co0.286 Cr0.429 Fe1 Mn0.143 Ni0.714 V0.286,FCC,WROUGHT,FCC,11.2,,7.9,,T,25.0,312.0,660.0,51.0,,,209,,,,10.1016/j.msea.2018.12.077,2019,Effect of grain size on the tensile behavior of V10Cr15Mn5Fe35Co10Ni25 high entropy alloy
216,Co0.286 Cr0.429 Fe1 Mn0.143 Ni0.714 V0.286,FCC,WROUGHT,FCC,48.2,,7.9,,T,25.0,240.0,610.0,53.0,,,209,,,,10.1016/j.msea.2018.12.077,2019,Effect of grain size on the tensile behavior of V10Cr15Mn5Fe35Co10Ni25 high entropy alloy
216,Co0.286 Cr0.429 Fe1 Mn0.143 Ni0.714 V0.286,FCC,WROUGHT,FCC,82.7,,7.9,,T,25.0,210.0,593.0,52.0,,,209,,,,10.1016/j.msea.2018.12.077,2019,Effect of grain size on the tensile behavior of V10Cr15Mn5Fe35Co10Ni25 high entropy alloy
218,Co1 Cr1 Fe1 Mn1 Ni1,Other,POWDER,other,,7.5,8.1,410.9,T,25.0,,,,,184.0,219,,,,10.1016/j.jallcom.2019.07.195,2019,Structure and properties of equiatomic CoCrFeNiMn alloy fabricated by high-energy ball milling and spark plasma sintering
219,Al1 Co0.5 Cr0.5 Fe0.5 Ni0.5,,CAST,other,80.67,,6.4,581.7,C,25.0,1241.0,,9.98,,,173,,,,10.1016/j.jallcom.2019.07.100,2019,"Effects of Ti-to-Al ratios on the phases, microstructures, mechanical properties, and corrosion resistance of Al2-xCoCrFeNiTix high-entropy alloys"
219,Al1 Co0.556 Cr0.556 Fe0.556 Ni0.556 Ti0.111,,CAST,other,66.93,,6.4,605.5,C,25.0,1324.0,,10.02,,,175,,,,10.1016/j.jallcom.2019.07.100,2019,"Effects of Ti-to-Al ratios on the phases, microstructures, mechanical properties, and corrosion resistance of Al2-xCoCrFeNiTix high-entropy alloys"
219,Al1 Co0.667 Cr0.667 Fe0.667 Ni0.667 Ti0.333,,CAST,other,56.27,,6.5,641.7,C,25.0,1566.0,,11.85,,,177,,,,10.1016/j.jallcom.2019.07.100,2019,"Effects of Ti-to-Al ratios on the phases, microstructures, mechanical properties, and corrosion resistance of Al2-xCoCrFeNiTix high-entropy alloys"
219,Al1 Co0.833 Cr0.833 Fe0.833 Ni0.833 Ti0.667,,CAST,other,49.95,,6.6,639.6,C,25.0,1503.0,,7.73,,,179,,,,10.1016/j.jallcom.2019.07.100,2019,"Effects of Ti-to-Al ratios on the phases, microstructures, mechanical properties, and corrosion resistance of Al2-xCoCrFeNiTix high-entropy alloys"
219,Al1 Co1 Cr1 Fe1 Ni1 Ti1,,CAST,other,30.49,,6.7,703.0,C,25.0,1448.0,,6.18,,,181,,,,10.1016/j.jallcom.2019.07.100,2019,"Effects of Ti-to-Al ratios on the phases, microstructures, mechanical properties, and corrosion resistance of Al2-xCoCrFeNiTix high-entropy alloys"
219,Al0.667 Co0.833 Cr0.833 Fe0.833 Ni0.833 Ti1,,CAST,other,22.03,,6.7,856.9,C,25.0,1272.0,,3.15,,,182,,,,10.1016/j.jallcom.2019.07.100,2019,"Effects of Ti-to-Al ratios on the phases, microstructures, mechanical properties, and corrosion resistance of Al2-xCoCrFeNiTix high-entropy alloys"
219,Co1 Cr1 Cu1 Fe1 Ni1 Ti0.8,,,other,,,7.8,,C,25.0,1042.0,,2.11,,,193,,,,10.1016/j.jallcom.2019.07.100,2019,"Effects of Ti-to-Al ratios on the phases, microstructures, mechanical properties, and corrosion resistance of Al2-xCoCrFeNiTix high-entropy alloys"
219,Co1 Cr1 Cu1 Fe1 Ni1 Ti1,,,other,,,7.7,,C,25.0,1272.0,,0.0,,,191,,,,10.1016/j.jallcom.2019.07.100,2019,"Effects of Ti-to-Al ratios on the phases, microstructures, mechanical properties, and corrosion resistance of Al2-xCoCrFeNiTix high-entropy alloys"
219,Al1 C0.1 Co1 Cr1 Fe1 Ni1,,,other,,,7.0,,C,25.0,957.0,,10.52,,,,,,,10.1016/j.jallcom.2019.07.100,2019,"Effects of Ti-to-Al ratios on the phases, microstructures, mechanical properties, and corrosion resistance of Al2-xCoCrFeNiTix high-entropy alloys"
219,Al1 C0.2 Co1 Cr1 Fe1 Ni1,,,other,,,6.9,,C,25.0,906.0,,8.68,,,,,,,10.1016/j.jallcom.2019.07.100,2019,"Effects of Ti-to-Al ratios on the phases, microstructures, mechanical properties, and corrosion resistance of Al2-xCoCrFeNiTix high-entropy alloys"
219,Al1 C0.3 Co1 Cr1 Fe1 Ni1,,,other,,,6.8,,C,25.0,867.0,,7.82,,,,,,,10.1016/j.jallcom.2019.07.100,2019,"Effects of Ti-to-Al ratios on the phases, microstructures, mechanical properties, and corrosion resistance of Al2-xCoCrFeNiTix high-entropy alloys"
219,Al1 C0.4 Co1 Cr1 Fe1 Ni1,,,other,,,6.7,,C,25.0,1056.0,,6.67,,,,,,,10.1016/j.jallcom.2019.07.100,2019,"Effects of Ti-to-Al ratios on the phases, microstructures, mechanical properties, and corrosion resistance of Al2-xCoCrFeNiTix high-entropy alloys"
219,Al1 C0.5 Co1 Cr1 Fe1 Ni1,,,other,,,6.7,,C,25.0,1060.0,,5.6,,,,,,,10.1016/j.jallcom.2019.07.100,2019,"Effects of Ti-to-Al ratios on the phases, microstructures, mechanical properties, and corrosion resistance of Al2-xCoCrFeNiTix high-entropy alloys"
219,Al1 Co1 Cr1 Fe1 Ni1,,,other,,,7.1,,C,25.0,1300.0,,24.2,,,194,,,,10.1016/j.jallcom.2019.07.100,2019,"Effects of Ti-to-Al ratios on the phases, microstructures, mechanical properties, and corrosion resistance of Al2-xCoCrFeNiTix high-entropy alloys"
219,Al0.8 Co1 Cr1 Fe1 Ni1 Ti0.2,,,other,,,7.2,,C,25.0,968.0,,30.1,,,196,,,,10.1016/j.jallcom.2019.07.100,2019,"Effects of Ti-to-Al ratios on the phases, microstructures, mechanical properties, and corrosion resistance of Al2-xCoCrFeNiTix high-entropy alloys"
219,Al0.5 Co1 Cr1 Fe1 Ni1 Ti0.5,,,other,,,7.3,,C,25.0,1100.0,,27.5,,,198,,,,10.1016/j.jallcom.2019.07.100,2019,"Effects of Ti-to-Al ratios on the phases, microstructures, mechanical properties, and corrosion resistance of Al2-xCoCrFeNiTix high-entropy alloys"
219,Al1 Co1 Cu1 Fe1 Ni1,,,other,,,7.5,,C,25.0,1060.0,,19.1,,,164,,,,10.1016/j.jallcom.2019.07.100,2019,"Effects of Ti-to-Al ratios on the phases, microstructures, mechanical properties, and corrosion resistance of Al2-xCoCrFeNiTix high-entropy alloys"
219,Al1 Co1 Cr1 Cu1 Fe1 Ni1,,,other,,,7.4,,C,25.0,1285.0,,24.6,,,183,,,,10.1016/j.jallcom.2019.07.100,2019,"Effects of Ti-to-Al ratios on the phases, microstructures, mechanical properties, and corrosion resistance of Al2-xCoCrFeNiTix high-entropy alloys"
219,Al1 Co1 Cu1 Fe1 Ni1 Ti1,,,other,,,7.0,,C,25.0,1612.0,,12.8,,,156,,,,10.1016/j.jallcom.2019.07.100,2019,"Effects of Ti-to-Al ratios on the phases, microstructures, mechanical properties, and corrosion resistance of Al2-xCoCrFeNiTix high-entropy alloys"
219,Al1 Co1 Cr1 Cu1 Fe1 Ni1 Ti1,,,other,,,7.0,,C,25.0,1523.0,,8.1,,,174,,,,10.1016/j.jallcom.2019.07.100,2019,"Effects of Ti-to-Al ratios on the phases, microstructures, mechanical properties, and corrosion resistance of Al2-xCoCrFeNiTix high-entropy alloys"
219,Al1 Cr1 Fe1 Ni1,,,other,,,6.7,,C,25.0,1271.0,,14.0,,,190,,,,10.1016/j.jallcom.2019.07.100,2019,"Effects of Ti-to-Al ratios on the phases, microstructures, mechanical properties, and corrosion resistance of Al2-xCoCrFeNiTix high-entropy alloys"
219,Al1 Co0.25 Cr1 Fe1 Ni1,,,other,,,6.8,,C,25.0,1363.0,,19.0,,,191,,,,10.1016/j.jallcom.2019.07.100,2019,"Effects of Ti-to-Al ratios on the phases, microstructures, mechanical properties, and corrosion resistance of Al2-xCoCrFeNiTix high-entropy alloys"
219,Al1 Co0.5 Cr1 Fe1 Ni1,,,other,,,6.9,,C,25.0,1349.0,,20.0,,,192,,,,10.1016/j.jallcom.2019.07.100,2019,"Effects of Ti-to-Al ratios on the phases, microstructures, mechanical properties, and corrosion resistance of Al2-xCoCrFeNiTix high-entropy alloys"
219,Al1 Co0.75 Cr1 Fe1 Ni1,,,other,,,7.0,,C,25.0,1331.0,,20.0,,,193,,,,10.1016/j.jallcom.2019.07.100,2019,"Effects of Ti-to-Al ratios on the phases, microstructures, mechanical properties, and corrosion resistance of Al2-xCoCrFeNiTix high-entropy alloys"