IDENTIFIER: Reference ID,FORMULA,PROPERTY: Microstructure,PROPERTY: Processing method,PROPERTY: BCC/FCC/other,PROPERTY: grain size ($\mu$m),PROPERTY: Exp. Density (g/cm$^3$),PROPERTY: Computed Density (g/cm$^3$),PROPERTY: HV,PROPERTY: Type of test,PROPERTY: Test temperature ($^\circ$C),PROPERTY: YS (MPa),PROPERTY: UTS (MPa),PROPERTY: Elongation (%),PROPERTY: Elongation plastic (%),PROPERTY: Exp. Young modulus (GPa),PROPERTY: Computed Young modulus (GPa),PROPERTY: O content (wppm),PROPERTY: N content (wppm),PROPERTY: C content (wppm),REFERENCE: doi,REFERENCE: year,REFERENCE: title
69,Co1 Cr1 Mo1 Nb1 Ti1,BCC+Laves,CAST,other,,,7.9,,C,25.0,,1096.8,,,,208,,,,10.1007/s11665-017-2799-z,2017,Microstructure and Mechanical Properties of a Refractory CoCrMoNbTi High-Entropy Alloy
69,Co1 Cr1 Mo1 Nb1 Ti0.2,BCC+Laves,CAST,other,,,8.5,,C,25.0,,1905.6,,,,225,,,,10.1007/s11665-017-2799-z,2017,Microstructure and Mechanical Properties of a Refractory CoCrMoNbTi High-Entropy Alloy
69,Co1 Cr1 Mo1 Nb1 Ti0.4,BCC,CAST,BCC,,,8.3,,C,25.0,,1771.3,,,,220,,,,10.1007/s11665-017-2799-z,2017,Microstructure and Mechanical Properties of a Refractory CoCrMoNbTi High-Entropy Alloy
69,Co1 Cr1 Mo1 Nb1 Ti0.5,BCC+Laves,CAST,other,,,8.3,,C,25.0,,1609.2,,,,218,,,,10.1007/s11665-017-2799-z,2017,Microstructure and Mechanical Properties of a Refractory CoCrMoNbTi High-Entropy Alloy
70,Cr1 Hf1 Nb1 Ti1 Zr1,BCC+Laves,ANNEAL,other,,,8.0,,C,25.0,1457.0,1908.0,,,,129,,,,10.1016/j.ijrmhm.2014.07.009,2014,Experimental and theoretical study of Ti20Zr20Hf20Nb20X20 (X=V or Cr) refractory high-entropy alloys
70,Cr1 Hf1 Nb1 Ti1 Zr1,BCC+Laves,ANNEAL,other,,,8.0,,C,25.0,1420.0,1885.0,4.2,,,129,,,,10.1016/j.ijrmhm.2014.07.009,2014,Experimental and theoretical study of Ti20Zr20Hf20Nb20X20 (X=V or Cr) refractory high-entropy alloys
70,Cr1 Hf1 Nb1 Ti1 Zr1,BCC+Laves,ANNEAL,other,,,8.0,,C,25.0,1328.0,1884.0,,,,129,,,,10.1016/j.ijrmhm.2014.07.009,2014,Experimental and theoretical study of Ti20Zr20Hf20Nb20X20 (X=V or Cr) refractory high-entropy alloys
70,Cr1 Hf1 Nb1 Ti1 Zr1,BCC+Laves,ANNEAL,other,,,8.0,,C,25.0,1322.0,1726.0,,,,129,,,,10.1016/j.ijrmhm.2014.07.009,2014,Experimental and theoretical study of Ti20Zr20Hf20Nb20X20 (X=V or Cr) refractory high-entropy alloys
70,Cr1 Hf1 Nb1 Ti1 Zr1,BCC+Laves,CAST,other,,,8.0,,C,25.0,1375.0,2130.0,3.0,,,129,,,,10.1016/j.ijrmhm.2014.07.009,2014,Experimental and theoretical study of Ti20Zr20Hf20Nb20X20 (X=V or Cr) refractory high-entropy alloys
70,Hf1 Nb1 Ti1 V1 Zr1,BCC+Laves,ANNEAL,other,,,7.8,,C,25.0,1157.0,1468.0,,,,99,,,,10.1016/j.ijrmhm.2014.07.009,2014,Experimental and theoretical study of Ti20Zr20Hf20Nb20X20 (X=V or Cr) refractory high-entropy alloys
70,Hf1 Nb1 Ti1 V1 Zr1,BCC,ANNEAL,BCC,,,7.8,,C,25.0,1253.0,1393.0,,,,99,,,,10.1016/j.ijrmhm.2014.07.009,2014,Experimental and theoretical study of Ti20Zr20Hf20Nb20X20 (X=V or Cr) refractory high-entropy alloys
70,Hf1 Nb1 Ti1 V1 Zr1,BCC,ANNEAL,BCC,,,7.8,,C,25.0,1140.0,1463.0,,,,99,,,,10.1016/j.ijrmhm.2014.07.009,2014,Experimental and theoretical study of Ti20Zr20Hf20Nb20X20 (X=V or Cr) refractory high-entropy alloys
70,Hf1 Nb1 Ti1 V1 Zr1,BCC,ANNEAL,BCC,,,7.8,,C,25.0,1120.0,1376.0,30.0,,,99,,,,10.1016/j.ijrmhm.2014.07.009,2014,Experimental and theoretical study of Ti20Zr20Hf20Nb20X20 (X=V or Cr) refractory high-entropy alloys
70,Hf1 Nb1 Ti1 V1 Zr1,BCC+Laves,CAST,other,,,7.8,,C,25.0,1170.0,1463.0,29.6,,,99,,,,10.1016/j.ijrmhm.2014.07.009,2014,Experimental and theoretical study of Ti20Zr20Hf20Nb20X20 (X=V or Cr) refractory high-entropy alloys
71,Cr1 Ta1 Ti0.17 V1 W1,BCC+Laves,POWDER,other,,,12.0,715.0,C,25.0,2034.0,,1.5,,,245,,,,10.1016/j.matchemphys.2017.06.054,2018,The effect of Ti on the sintering and mechanical properties of refractory high-entropy alloy TixWTaVCr fabricated via spark plasma sintering for fusion plasma-facing materials
71,Cr1 Ta1 Ti0.17 V1 W1,BCC+Laves,POWDER,other,,,12.0,,C,1200.0,750.0,,1.5,,,245,,,,10.1016/j.matchemphys.2017.06.054,2018,The effect of Ti on the sintering and mechanical properties of refractory high-entropy alloy TixWTaVCr fabricated via spark plasma sintering for fusion plasma-facing materials
71,Cr1 Ta1 Ti0.3 V1 W1,BCC+Laves,POWDER,other,,,11.7,780.0,C,25.0,2050.0,,1.5,,,242,,,,10.1016/j.matchemphys.2017.06.054,2018,The effect of Ti on the sintering and mechanical properties of refractory high-entropy alloy TixWTaVCr fabricated via spark plasma sintering for fusion plasma-facing materials
71,Cr1 Ta1 Ti0.3 V1 W1,BCC+Laves,POWDER,other,,,11.7,,C,1200.0,586.0,,1.5,,,242,,,,10.1016/j.matchemphys.2017.06.054,2018,The effect of Ti on the sintering and mechanical properties of refractory high-entropy alloy TixWTaVCr fabricated via spark plasma sintering for fusion plasma-facing materials
71,Cr1 Ta1 V1 W1,BCC+Laves,POWDER,other,,,12.3,715.0,C,25.0,2327.0,,1.5,,,251,,,,10.1016/j.matchemphys.2017.06.054,2018,The effect of Ti on the sintering and mechanical properties of refractory high-entropy alloy TixWTaVCr fabricated via spark plasma sintering for fusion plasma-facing materials
71,Cr1 Ta1 V1 W1,BCC+Laves,POWDER,other,,,12.3,,C,1200.0,979.0,,1.5,,,251,,,,10.1016/j.matchemphys.2017.06.054,2018,The effect of Ti on the sintering and mechanical properties of refractory high-entropy alloy TixWTaVCr fabricated via spark plasma sintering for fusion plasma-facing materials
72,Hf0.26 Nb1 Ta1 Ti0.578 Zr0.416,BCC,CAST,BCC,,,10.4,,C,60.0,795.0,,,,,125,,,,10.1080/14786435.2015.1028506,2015,Plastic deformation properties of Zr–Nb–Ti–Ta–Hf high-entropy alloys
72,Hf0.26 Nb1 Ta1 Ti0.578 Zr0.416,BCC,CAST,BCC,,,10.4,,C,100.0,765.0,,,,,125,,,,10.1080/14786435.2015.1028506,2015,Plastic deformation properties of Zr–Nb–Ti–Ta–Hf high-entropy alloys
72,Hf0.26 Nb1 Ta1 Ti0.578 Zr0.416,BCC,CAST,BCC,,,10.4,,C,200.0,650.0,,,,,125,,,,10.1080/14786435.2015.1028506,2015,Plastic deformation properties of Zr–Nb–Ti–Ta–Hf high-entropy alloys
72,Hf0.26 Nb1 Ta1 Ti0.578 Zr0.416,BCC,CAST,BCC,,,10.4,,C,300.0,590.0,,,,,125,,,,10.1080/14786435.2015.1028506,2015,Plastic deformation properties of Zr–Nb–Ti–Ta–Hf high-entropy alloys
72,Hf0.26 Nb1 Ta1 Ti0.578 Zr0.416,BCC,CAST,BCC,,,10.4,,C,25.0,845.0,,,,,125,,,,10.1080/14786435.2015.1028506,2015,Plastic deformation properties of Zr–Nb–Ti–Ta–Hf high-entropy alloys
73,Hf0.5 Mo0.5 Nb1 Si0.1 Ti1 Zr1,BCC+Sec.,CAST,other,,,7.7,442.0,C,25.0,1350.0,2150.0,,28.0,,121,,,,10.1016/j.jallcom.2015.11.091,2016,Microstructure and mechanical properties of refractory high entropy (Mo 0.5 NbHf 0.5 ZrTi) BCC /M 5 Si 3 in-situ compound
73,Hf0.5 Mo0.5 Nb1 Si0.3 Ti1 Zr1,BCC+Sec.,CAST,other,,,7.5,494.0,C,25.0,1370.0,1950.0,,23.0,,118,,,,10.1016/j.jallcom.2015.11.091,2016,Microstructure and mechanical properties of refractory high entropy (Mo 0.5 NbHf 0.5 ZrTi) BCC /M 5 Si 3 in-situ compound
73,Hf0.5 Mo0.5 Nb1 Si0.5 Ti1 Zr1,BCC+Sec.,CAST,other,,,7.2,524.0,C,25.0,1600.0,1900.0,,23.0,,115,,,,10.1016/j.jallcom.2015.11.091,2016,Microstructure and mechanical properties of refractory high entropy (Mo 0.5 NbHf 0.5 ZrTi) BCC /M 5 Si 3 in-situ compound
73,Hf0.5 Mo0.5 Nb1 Si0.7 Ti1 Zr1,BCC+Sec.,CAST,other,,,7.0,580.0,C,25.0,1550.0,1900.0,,12.0,,112,,,,10.1016/j.jallcom.2015.11.091,2016,Microstructure and mechanical properties of refractory high entropy (Mo 0.5 NbHf 0.5 ZrTi) BCC /M 5 Si 3 in-situ compound
73,Hf0.5 Mo0.5 Nb1 Si0.9 Ti1 Zr1,BCC+Sec.,CAST,other,,,6.8,640.0,C,25.0,1650.0,2000.0,,9.0,,109,,,,10.1016/j.jallcom.2015.11.091,2016,Microstructure and mechanical properties of refractory high entropy (Mo 0.5 NbHf 0.5 ZrTi) BCC /M 5 Si 3 in-situ compound
73,Hf0.5 Mo0.5 Nb1 Ti1 Zr1,BCC+Sec.,CAST,other,,,7.8,400.0,C,25.0,1150.0,1500.0,,25.0,,123,,,,10.1016/j.jallcom.2015.11.091,2016,Microstructure and mechanical properties of refractory high entropy (Mo 0.5 NbHf 0.5 ZrTi) BCC /M 5 Si 3 in-situ compound
74,Hf0.5 Nb0.667 Ta0.333 Ti1 Zr0.833,BCC,WROUGHT,BCC,,,8.4,,C,-268.8,2250.0,,,,,103,,,,10.1016/j.msea.2017.10.073,2018,Mechanical properties and thermally activated plasticity of the Ti30Zr25Hf15Nb20Ta10 high entropy alloy at temperatures 4.2–350 K
74,Hf0.5 Nb0.667 Ta0.333 Ti1 Zr0.833,BCC,WROUGHT,BCC,,,8.4,,C,-268.8,2210.0,,,,,103,,,,10.1016/j.msea.2017.10.073,2018,Mechanical properties and thermally activated plasticity of the Ti30Zr25Hf15Nb20Ta10 high entropy alloy at temperatures 4.2–350 K
74,Hf0.5 Nb0.667 Ta0.333 Ti1 Zr0.833,BCC,WROUGHT,BCC,,,8.4,,C,-196.0,1880.0,,,,,103,,,,10.1016/j.msea.2017.10.073,2018,Mechanical properties and thermally activated plasticity of the Ti30Zr25Hf15Nb20Ta10 high entropy alloy at temperatures 4.2–350 K
74,Hf0.5 Nb0.667 Ta0.333 Ti1 Zr0.833,BCC,WROUGHT,BCC,,,8.4,,C,-196.0,1750.0,,,,,103,,,,10.1016/j.msea.2017.10.073,2018,Mechanical properties and thermally activated plasticity of the Ti30Zr25Hf15Nb20Ta10 high entropy alloy at temperatures 4.2–350 K
74,Hf0.5 Nb0.667 Ta0.333 Ti1 Zr0.833,BCC,WROUGHT,BCC,,,8.4,,C,-153.0,1640.0,,,,,103,,,,10.1016/j.msea.2017.10.073,2018,Mechanical properties and thermally activated plasticity of the Ti30Zr25Hf15Nb20Ta10 high entropy alloy at temperatures 4.2–350 K
74,Hf0.5 Nb0.667 Ta0.333 Ti1 Zr0.833,BCC,WROUGHT,BCC,,,8.4,,C,-153.0,1550.0,,,,,103,,,,10.1016/j.msea.2017.10.073,2018,Mechanical properties and thermally activated plasticity of the Ti30Zr25Hf15Nb20Ta10 high entropy alloy at temperatures 4.2–350 K
74,Hf0.5 Nb0.667 Ta0.333 Ti1 Zr0.833,BCC,WROUGHT,BCC,,,8.4,,C,-103.0,1380.0,,,,,103,,,,10.1016/j.msea.2017.10.073,2018,Mechanical properties and thermally activated plasticity of the Ti30Zr25Hf15Nb20Ta10 high entropy alloy at temperatures 4.2–350 K
74,Hf0.5 Nb0.667 Ta0.333 Ti1 Zr0.833,BCC,WROUGHT,BCC,,,8.4,,C,-103.0,1370.0,,,,,103,,,,10.1016/j.msea.2017.10.073,2018,Mechanical properties and thermally activated plasticity of the Ti30Zr25Hf15Nb20Ta10 high entropy alloy at temperatures 4.2–350 K
74,Hf0.5 Nb0.667 Ta0.333 Ti1 Zr0.833,BCC,WROUGHT,BCC,,,8.4,,C,-43.0,1200.0,,,,,103,,,,10.1016/j.msea.2017.10.073,2018,Mechanical properties and thermally activated plasticity of the Ti30Zr25Hf15Nb20Ta10 high entropy alloy at temperatures 4.2–350 K
74,Hf0.5 Nb0.667 Ta0.333 Ti1 Zr0.833,BCC,WROUGHT,BCC,,,8.4,,C,-43.0,1180.0,,,,,103,,,,10.1016/j.msea.2017.10.073,2018,Mechanical properties and thermally activated plasticity of the Ti30Zr25Hf15Nb20Ta10 high entropy alloy at temperatures 4.2–350 K
74,Hf0.5 Nb0.667 Ta0.333 Ti1 Zr0.833,BCC,WROUGHT,BCC,,,8.4,,C,72.0,1040.0,,,,,103,,,,10.1016/j.msea.2017.10.073,2018,Mechanical properties and thermally activated plasticity of the Ti30Zr25Hf15Nb20Ta10 high entropy alloy at temperatures 4.2–350 K
74,Hf0.5 Nb0.667 Ta0.333 Ti1 Zr0.833,BCC,WROUGHT,BCC,,,8.4,,C,72.0,1020.0,,,,,103,,,,10.1016/j.msea.2017.10.073,2018,Mechanical properties and thermally activated plasticity of the Ti30Zr25Hf15Nb20Ta10 high entropy alloy at temperatures 4.2–350 K
74,Hf0.5 Nb0.667 Ta0.333 Ti1 Zr0.833,BCC,WROUGHT,BCC,,,8.4,,C,25.0,1150.0,,,,,103,,,,10.1016/j.msea.2017.10.073,2018,Mechanical properties and thermally activated plasticity of the Ti30Zr25Hf15Nb20Ta10 high entropy alloy at temperatures 4.2–350 K
74,Hf0.5 Nb0.667 Ta0.333 Ti1 Zr0.833,BCC,WROUGHT,BCC,,,8.4,,C,25.0,1100.0,,,,,103,,,,10.1016/j.msea.2017.10.073,2018,Mechanical properties and thermally activated plasticity of the Ti30Zr25Hf15Nb20Ta10 high entropy alloy at temperatures 4.2–350 K
74,Hf0.5 Nb0.667 Ta0.333 Ti1 Zr0.833,BCC,WROUGHT,BCC,,,8.4,,C,-268.8,2390.0,,,,,103,,,,10.1016/j.msea.2017.10.073,2018,Mechanical properties and thermally activated plasticity of the Ti30Zr25Hf15Nb20Ta10 high entropy alloy at temperatures 4.2–350 K
74,Hf0.5 Nb0.667 Ta0.333 Ti1 Zr0.833,BCC,WROUGHT,BCC,,,8.4,,C,-196.0,1920.0,,,,,103,,,,10.1016/j.msea.2017.10.073,2018,Mechanical properties and thermally activated plasticity of the Ti30Zr25Hf15Nb20Ta10 high entropy alloy at temperatures 4.2–350 K
74,Hf0.5 Nb0.667 Ta0.333 Ti1 Zr0.833,BCC,WROUGHT,BCC,,,8.4,,C,-153.0,1370.0,,,,,103,,,,10.1016/j.msea.2017.10.073,2018,Mechanical properties and thermally activated plasticity of the Ti30Zr25Hf15Nb20Ta10 high entropy alloy at temperatures 4.2–350 K
74,Hf0.5 Nb0.667 Ta0.333 Ti1 Zr0.833,BCC,WROUGHT,BCC,,,8.4,,C,-103.0,1250.0,,,,,103,,,,10.1016/j.msea.2017.10.073,2018,Mechanical properties and thermally activated plasticity of the Ti30Zr25Hf15Nb20Ta10 high entropy alloy at temperatures 4.2–350 K
74,Hf0.5 Nb0.667 Ta0.333 Ti1 Zr0.833,BCC,WROUGHT,BCC,,,8.4,,C,-43.0,1020.0,,,,,103,,,,10.1016/j.msea.2017.10.073,2018,Mechanical properties and thermally activated plasticity of the Ti30Zr25Hf15Nb20Ta10 high entropy alloy at temperatures 4.2–350 K
74,Hf0.5 Nb0.667 Ta0.333 Ti1 Zr0.833,BCC,WROUGHT,BCC,,,8.4,,C,72.0,640.0,,,,,103,,,,10.1016/j.msea.2017.10.073,2018,Mechanical properties and thermally activated plasticity of the Ti30Zr25Hf15Nb20Ta10 high entropy alloy at temperatures 4.2–350 K
74,Hf0.5 Nb0.667 Ta0.333 Ti1 Zr0.833,BCC,WROUGHT,BCC,,,8.4,,C,25.0,890.0,,,,,103,,,,10.1016/j.msea.2017.10.073,2018,Mechanical properties and thermally activated plasticity of the Ti30Zr25Hf15Nb20Ta10 high entropy alloy at temperatures 4.2–350 K
75,Hf1 Mo0.25 Nb1 Ta1 Ti1 Zr1,BCC,CAST,BCC,,,9.9,,C,25.0,1112.0,,,,,121,,,,10.1016/j.matlet.2016.03.133,2016,Solution strengthening of ductile refractory HfMo x NbTaTiZr high-entropy alloys
75,Hf1 Mo0.5 Nb1 Ta1 Ti1 Zr1,BCC,CAST,BCC,,,9.9,,C,25.0,1317.0,,,,,130,,,,10.1016/j.matlet.2016.03.133,2016,Solution strengthening of ductile refractory HfMo x NbTaTiZr high-entropy alloys
75,Hf1 Mo0.75 Nb1 Ta1 Ti1 Zr1,BCC,CAST,BCC,,,10.0,,C,25.0,1373.0,,,,,139,,,,10.1016/j.matlet.2016.03.133,2016,Solution strengthening of ductile refractory HfMo x NbTaTiZr high-entropy alloys
75,Hf1 Mo1 Nb1 Ta1 Ti1 Zr1,BCC,CAST,BCC,,,10.0,,C,25.0,1512.0,1800.0,,,,147,,,,10.1016/j.matlet.2016.03.133,2016,Solution strengthening of ductile refractory HfMo x NbTaTiZr high-entropy alloys
75,Hf1 Nb1 Ta1 Ti1 Zr1,BCC,CAST,BCC,,,9.9,,C,25.0,1015.0,,,,,111,,,,10.1016/j.matlet.2016.03.133,2016,Solution strengthening of ductile refractory HfMo x NbTaTiZr high-entropy alloys
76,Hf1 Mo0.5 Nb1 Si0.3 Ti1 V0.5,BCC+Sec.,CAST,other,,,8.2,,C,1000.0,398.0,430.0,,,,126,,,,10.1016/j.jallcom.2016.10.014,2017,Microstructure and mechanical properties of refractory HfMo0.5NbTiV0.5Six high-entropy composites
76,Hf1 Mo0.5 Nb1 Si0.3 Ti1 V0.5,BCC+Sec.,CAST,other,,,8.2,,C,25.0,1617.0,2016.0,,,,126,,,,10.1016/j.jallcom.2016.10.014,2017,Microstructure and mechanical properties of refractory HfMo0.5NbTiV0.5Six high-entropy composites
76,Hf1 Mo0.5 Nb1 Si0.3 Ti1 V0.5,BCC+Sec.,CAST,other,,,8.2,,C,1200.0,166.0,187.0,,,,126,,,,10.1016/j.jallcom.2016.10.014,2017,Microstructure and mechanical properties of refractory HfMo0.5NbTiV0.5Six high-entropy composites
76,Hf1 Mo0.5 Nb1 Si0.5 Ti1 V0.5,BCC+Sec.,CAST,other,,,7.9,,C,1000.0,614.0,696.0,,,,122,,,,10.1016/j.jallcom.2016.10.014,2017,Microstructure and mechanical properties of refractory HfMo0.5NbTiV0.5Six high-entropy composites
76,Hf1 Mo0.5 Nb1 Si0.5 Ti1 V0.5,BCC+Sec.,CAST,other,,,7.9,,C,25.0,1787.0,2052.0,,,,122,,,,10.1016/j.jallcom.2016.10.014,2017,Microstructure and mechanical properties of refractory HfMo0.5NbTiV0.5Six high-entropy composites
76,Hf1 Mo0.5 Nb1 Si0.5 Ti1 V0.5,BCC+Sec.,CAST,other,,,7.9,,C,1200.0,188.0,219.0,,,,122,,,,10.1016/j.jallcom.2016.10.014,2017,Microstructure and mechanical properties of refractory HfMo0.5NbTiV0.5Six high-entropy composites
76,Hf1 Mo0.5 Nb1 Si0.7 Ti1 V0.5,BCC+Sec.,CAST,other,,,7.7,,C,1000.0,673.0,741.0,,,,119,,,,10.1016/j.jallcom.2016.10.014,2017,Microstructure and mechanical properties of refractory HfMo0.5NbTiV0.5Six high-entropy composites
76,Hf1 Mo0.5 Nb1 Si0.7 Ti1 V0.5,BCC+Sec.,CAST,other,,,7.7,,C,25.0,2134.0,2242.0,,,,119,,,,10.1016/j.jallcom.2016.10.014,2017,Microstructure and mechanical properties of refractory HfMo0.5NbTiV0.5Six high-entropy composites
76,Hf1 Mo0.5 Nb1 Si0.7 Ti1 V0.5,BCC+Sec.,CAST,other,,,7.7,,C,1200.0,235.0,268.0,,,,119,,,,10.1016/j.jallcom.2016.10.014,2017,Microstructure and mechanical properties of refractory HfMo0.5NbTiV0.5Six high-entropy composites
76,Hf1 Mo0.5 Nb1 Ti1 V0.5,BCC,CAST,BCC,,,8.6,,C,1000.0,368.0,394.0,,,,132,,,,10.1016/j.jallcom.2016.10.014,2017,Microstructure and mechanical properties of refractory HfMo0.5NbTiV0.5Six high-entropy composites
76,Hf1 Mo0.5 Nb1 Ti1 V0.5,BCC,CAST,BCC,,,8.6,,C,1200.0,60.0,,,,,132,,,,10.1016/j.jallcom.2016.10.014,2017,Microstructure and mechanical properties of refractory HfMo0.5NbTiV0.5Six high-entropy composites
76,Hf1 Mo0.5 Nb1 Ti1 V0.5,BCC,CAST,BCC,,,8.6,,C,25.0,1260.0,,,,,132,,,,10.1016/j.jallcom.2016.10.014,2017,Microstructure and mechanical properties of refractory HfMo0.5NbTiV0.5Six high-entropy composites
77,Hf0.787 Nb0.142 Ta0.142 Ti1 Zr0.787,BCC,WROUGHT,BCC,,,8.3,,T,25.0,540.0,995.0,,,,95,,,,10.1080/21663831.2016.1221861,2016,Design and tensile properties of a bcc Ti-rich high-entropy alloy with transformation-induced plasticity
78,Al0.25 Nb1 Ta1 Ti1 Zr1,BCC+B2,OTHER,other,,,8.7,,C,1000.0,366.0,408.0,,,,116,,,,10.1016/j.matdes.2017.11.033,2018,Compositional variation effects on the microstructure and properties of a refractory high-entropy superalloy AlMo0.5NbTa0.5TiZr
78,Al0.25 Nb1 Ta1 Ti1 Zr1,BCC+B2,OTHER,other,,,8.7,,C,25.0,1745.0,1830.0,,,,116,,,,10.1016/j.matdes.2017.11.033,2018,Compositional variation effects on the microstructure and properties of a refractory high-entropy superalloy AlMo0.5NbTa0.5TiZr
78,Al0.5 Mo0.5 Nb1 Ta0.5 Ti1 Zr1,BCC+B2,OTHER,other,,,7.6,,C,1000.0,579.0,646.0,,,,129,,,,10.1016/j.matdes.2017.11.033,2018,Compositional variation effects on the microstructure and properties of a refractory high-entropy superalloy AlMo0.5NbTa0.5TiZr
78,Al0.5 Mo0.5 Nb1 Ta0.5 Ti1 Zr1,BCC+B2,OTHER,other,,,7.6,,C,25.0,2350.0,2460.0,,,,129,,,,10.1016/j.matdes.2017.11.033,2018,Compositional variation effects on the microstructure and properties of a refractory high-entropy superalloy AlMo0.5NbTa0.5TiZr
78,Al1 Mo0.5 Nb1 Ta0.5 Ti1 Zr1,BCC+B2,OTHER,other,,,7.2,,C,1000.0,745.0,792.0,,,,123,,,,10.1016/j.matdes.2017.11.033,2018,Compositional variation effects on the microstructure and properties of a refractory high-entropy superalloy AlMo0.5NbTa0.5TiZr
78,Al1 Mo0.5 Nb1 Ta0.5 Ti1 Zr1,BCC+B2,OTHER,other,,,7.2,,C,25.0,2197.0,2370.0,,,,123,,,,10.1016/j.matdes.2017.11.033,2018,Compositional variation effects on the microstructure and properties of a refractory high-entropy superalloy AlMo0.5NbTa0.5TiZr
78,Al1 Mo0.5 Nb1 Ta0.5 Ti1 Zr0.5,B2,OTHER,other,,,7.2,,C,1000.0,935.0,1019.0,,,,129,,,,10.1016/j.matdes.2017.11.033,2018,Compositional variation effects on the microstructure and properties of a refractory high-entropy superalloy AlMo0.5NbTa0.5TiZr
78,Al1 Mo0.5 Nb1 Ta0.5 Ti1 Zr0.5,B2,OTHER,other,,,7.2,,C,25.0,,1320.0,,,,129,,,,10.1016/j.matdes.2017.11.033,2018,Compositional variation effects on the microstructure and properties of a refractory high-entropy superalloy AlMo0.5NbTa0.5TiZr
78,Al1 Nb1 Ta0.5 Ti1 Zr0.5,B2,OTHER,other,,,6.8,,C,1000.0,535.0,542.0,,,,104,,,,10.1016/j.matdes.2017.11.033,2018,Compositional variation effects on the microstructure and properties of a refractory high-entropy superalloy AlMo0.5NbTa0.5TiZr
78,Al1 Nb1 Ta0.5 Ti1 Zr0.5,B2,OTHER,other,,,6.8,,C,25.0,1352.0,1357.0,,,,104,,,,10.1016/j.matdes.2017.11.033,2018,Compositional variation effects on the microstructure and properties of a refractory high-entropy superalloy AlMo0.5NbTa0.5TiZr
79,Hf1 Nb1 Si0.5 Ti1 V1 Zr1,BCC+Laves+Sec.,ANNEAL,other,,,7.3,,C,400.0,1273.0,1335.0,14.5,,,94,,,,10.4028/www.scientific.net/MSF.849.76,2016,Microstructure and Mechanical Properties of a New Refractory HfNbSisub0.5/subTiVZr High Entropy Alloy
79,Hf1 Nb1 Si0.5 Ti1 V1 Zr1,BCC+Laves+Sec.,ANNEAL,other,,,7.3,,C,600.0,597.0,651.0,50.0,,,94,,,,10.4028/www.scientific.net/MSF.849.76,2016,Microstructure and Mechanical Properties of a New Refractory HfNbSisub0.5/subTiVZr High Entropy Alloy
79,Hf1 Nb1 Si0.5 Ti1 V1 Zr1,BCC+Laves+Sec.,ANNEAL,other,,,7.3,,C,800.0,102.0,107.0,50.0,,,94,,,,10.4028/www.scientific.net/MSF.849.76,2016,Microstructure and Mechanical Properties of a New Refractory HfNbSisub0.5/subTiVZr High Entropy Alloy