IDENTIFIER: Reference ID,FORMULA,PROPERTY: Microstructure,PROPERTY: Processing method,PROPERTY: BCC/FCC/other,PROPERTY: grain size ($\mu$m),PROPERTY: Exp. Density (g/cm$^3$),PROPERTY: Calculated Density (g/cm$^3$),PROPERTY: HV,PROPERTY: Type of test,PROPERTY: Test temperature ($^\circ$C),PROPERTY: YS (MPa),PROPERTY: UTS (MPa),PROPERTY: Elongation (%),PROPERTY: Elongation plastic (%),PROPERTY: Exp. Young modulus (GPa),PROPERTY: Calculated Young modulus (GPa),PROPERTY: O content (wppm),PROPERTY: N content (wppm),PROPERTY: C content (wppm),REFERENCE: doi,REFERENCE: year,REFERENCE: title
70,Cr1 Hf1 Nb1 Ti1 Zr1,BCC+Laves,ANNEAL,other,,,8.2,,C,25.0,1457.0,1908.0,,,,,,,,10.1016/j.ijrmhm.2014.07.009,2014,Experimental and theoretical study of Ti20Zr20Hf20Nb20X20 (X=V or Cr) refractory high-entropy alloys
70,Cr1 Hf1 Nb1 Ti1 Zr1,BCC+Laves,ANNEAL,other,,,8.2,,C,25.0,1420.0,1885.0,4.2,,,,,,,10.1016/j.ijrmhm.2014.07.009,2014,Experimental and theoretical study of Ti20Zr20Hf20Nb20X20 (X=V or Cr) refractory high-entropy alloys
70,Cr1 Hf1 Nb1 Ti1 Zr1,BCC+Laves,ANNEAL,other,,,8.2,,C,25.0,1328.0,1884.0,,,,,,,,10.1016/j.ijrmhm.2014.07.009,2014,Experimental and theoretical study of Ti20Zr20Hf20Nb20X20 (X=V or Cr) refractory high-entropy alloys
70,Cr1 Hf1 Nb1 Ti1 Zr1,BCC+Laves,ANNEAL,other,,,8.2,,C,25.0,1322.0,1726.0,,,,,,,,10.1016/j.ijrmhm.2014.07.009,2014,Experimental and theoretical study of Ti20Zr20Hf20Nb20X20 (X=V or Cr) refractory high-entropy alloys
70,Cr1 Hf1 Nb1 Ti1 Zr1,BCC+Laves,CAST,other,,,8.2,,C,25.0,1375.0,2130.0,3.0,,,,,,,10.1016/j.ijrmhm.2014.07.009,2014,Experimental and theoretical study of Ti20Zr20Hf20Nb20X20 (X=V or Cr) refractory high-entropy alloys
70,Hf1 Nb1 Ti1 V1 Zr1,BCC+Laves,ANNEAL,other,,,8.1,,C,25.0,1157.0,1468.0,,,,,,,,10.1016/j.ijrmhm.2014.07.009,2014,Experimental and theoretical study of Ti20Zr20Hf20Nb20X20 (X=V or Cr) refractory high-entropy alloys
70,Hf1 Nb1 Ti1 V1 Zr1,BCC,ANNEAL,BCC,,,8.1,,C,25.0,1253.0,1393.0,,,,95,,,,10.1016/j.ijrmhm.2014.07.009,2014,Experimental and theoretical study of Ti20Zr20Hf20Nb20X20 (X=V or Cr) refractory high-entropy alloys
70,Hf1 Nb1 Ti1 V1 Zr1,BCC,ANNEAL,BCC,,,8.1,,C,25.0,1140.0,1463.0,,,,95,,,,10.1016/j.ijrmhm.2014.07.009,2014,Experimental and theoretical study of Ti20Zr20Hf20Nb20X20 (X=V or Cr) refractory high-entropy alloys
70,Hf1 Nb1 Ti1 V1 Zr1,BCC,ANNEAL,BCC,,,8.1,,C,25.0,1120.0,1376.0,30.0,,,95,,,,10.1016/j.ijrmhm.2014.07.009,2014,Experimental and theoretical study of Ti20Zr20Hf20Nb20X20 (X=V or Cr) refractory high-entropy alloys
70,Hf1 Nb1 Ti1 V1 Zr1,BCC+Laves,CAST,other,,,8.1,,C,25.0,1170.0,1463.0,29.6,,,,,,,10.1016/j.ijrmhm.2014.07.009,2014,Experimental and theoretical study of Ti20Zr20Hf20Nb20X20 (X=V or Cr) refractory high-entropy alloys
71,Cr1 Ta1 Ti0.17 V1 W1,BCC+Laves,POWDER,other,,,12.6,715.0,C,25.0,2034.0,,1.5,,,,,,,10.1016/j.matchemphys.2017.06.054,2018,The effect of Ti on the sintering and mechanical properties of refractory high-entropy alloy TixWTaVCr fabricated via spark plasma sintering for fusion plasma-facing materials
71,Cr1 Ta1 Ti0.17 V1 W1,BCC+Laves,POWDER,other,,,12.6,,C,1200.0,750.0,,1.5,,,,,,,10.1016/j.matchemphys.2017.06.054,2018,The effect of Ti on the sintering and mechanical properties of refractory high-entropy alloy TixWTaVCr fabricated via spark plasma sintering for fusion plasma-facing materials
71,Cr1 Ta1 Ti0.3 V1 W1,BCC+Laves,POWDER,other,,,12.3,780.0,C,25.0,2050.0,,1.5,,,,,,,10.1016/j.matchemphys.2017.06.054,2018,The effect of Ti on the sintering and mechanical properties of refractory high-entropy alloy TixWTaVCr fabricated via spark plasma sintering for fusion plasma-facing materials
71,Cr1 Ta1 Ti0.3 V1 W1,BCC+Laves,POWDER,other,,,12.3,,C,1200.0,586.0,,1.5,,,,,,,10.1016/j.matchemphys.2017.06.054,2018,The effect of Ti on the sintering and mechanical properties of refractory high-entropy alloy TixWTaVCr fabricated via spark plasma sintering for fusion plasma-facing materials
71,Cr1 Ta1 V1 W1,BCC+Laves,POWDER,other,,,13.0,715.0,C,25.0,2327.0,,1.5,,,,,,,10.1016/j.matchemphys.2017.06.054,2018,The effect of Ti on the sintering and mechanical properties of refractory high-entropy alloy TixWTaVCr fabricated via spark plasma sintering for fusion plasma-facing materials
71,Cr1 Ta1 V1 W1,BCC+Laves,POWDER,other,,,13.0,,C,1200.0,979.0,,1.5,,,,,,,10.1016/j.matchemphys.2017.06.054,2018,The effect of Ti on the sintering and mechanical properties of refractory high-entropy alloy TixWTaVCr fabricated via spark plasma sintering for fusion plasma-facing materials
72,Hf0.26 Nb1 Ta1 Ti0.578 Zr0.416,BCC,CAST,BCC,,,10.4,,C,60.0,795.0,,,,,122,,,,10.1080/14786435.2015.1028506,2015,Plastic deformation properties of Zr–Nb–Ti–Ta–Hf high-entropy alloys
72,Hf0.26 Nb1 Ta1 Ti0.578 Zr0.416,BCC,CAST,BCC,,,10.4,,C,100.0,765.0,,,,,122,,,,10.1080/14786435.2015.1028506,2015,Plastic deformation properties of Zr–Nb–Ti–Ta–Hf high-entropy alloys
72,Hf0.26 Nb1 Ta1 Ti0.578 Zr0.416,BCC,CAST,BCC,,,10.4,,C,200.0,650.0,,,,,122,,,,10.1080/14786435.2015.1028506,2015,Plastic deformation properties of Zr–Nb–Ti–Ta–Hf high-entropy alloys
72,Hf0.26 Nb1 Ta1 Ti0.578 Zr0.416,BCC,CAST,BCC,,,10.4,,C,300.0,590.0,,,,,122,,,,10.1080/14786435.2015.1028506,2015,Plastic deformation properties of Zr–Nb–Ti–Ta–Hf high-entropy alloys
72,Hf0.26 Nb1 Ta1 Ti0.578 Zr0.416,BCC,CAST,BCC,,,10.4,,C,25.0,845.0,,,,,122,,,,10.1080/14786435.2015.1028506,2015,Plastic deformation properties of Zr–Nb–Ti–Ta–Hf high-entropy alloys
73,Hf0.5 Mo0.5 Nb1 Si0.1 Ti1 Zr1,BCC+Sec.,CAST,other,,,7.7,442.0,C,25.0,1350.0,2150.0,,28.0,,,,,,10.1016/j.jallcom.2015.11.091,2016,Microstructure and mechanical properties of refractory high entropy (Mo 0.5 NbHf 0.5 ZrTi) BCC /M 5 Si 3 in-situ compound
73,Hf0.5 Mo0.5 Nb1 Si0.3 Ti1 Zr1,BCC+Sec.,CAST,other,,,7.5,494.0,C,25.0,1370.0,1950.0,,23.0,,,,,,10.1016/j.jallcom.2015.11.091,2016,Microstructure and mechanical properties of refractory high entropy (Mo 0.5 NbHf 0.5 ZrTi) BCC /M 5 Si 3 in-situ compound
73,Hf0.5 Mo0.5 Nb1 Si0.5 Ti1 Zr1,BCC+Sec.,CAST,other,,,7.2,524.0,C,25.0,1600.0,1900.0,,23.0,,,,,,10.1016/j.jallcom.2015.11.091,2016,Microstructure and mechanical properties of refractory high entropy (Mo 0.5 NbHf 0.5 ZrTi) BCC /M 5 Si 3 in-situ compound
73,Hf0.5 Mo0.5 Nb1 Si0.7 Ti1 Zr1,BCC+Sec.,CAST,other,,,7.0,580.0,C,25.0,1550.0,1900.0,,12.0,,,,,,10.1016/j.jallcom.2015.11.091,2016,Microstructure and mechanical properties of refractory high entropy (Mo 0.5 NbHf 0.5 ZrTi) BCC /M 5 Si 3 in-situ compound
73,Hf0.5 Mo0.5 Nb1 Si0.9 Ti1 Zr1,BCC+Sec.,CAST,other,,,6.8,640.0,C,25.0,1650.0,2000.0,,9.0,,,,,,10.1016/j.jallcom.2015.11.091,2016,Microstructure and mechanical properties of refractory high entropy (Mo 0.5 NbHf 0.5 ZrTi) BCC /M 5 Si 3 in-situ compound
73,Hf0.5 Mo0.5 Nb1 Ti1 Zr1,BCC+Sec.,CAST,other,,,7.9,400.0,C,25.0,1150.0,1500.0,,25.0,,,,,,10.1016/j.jallcom.2015.11.091,2016,Microstructure and mechanical properties of refractory high entropy (Mo 0.5 NbHf 0.5 ZrTi) BCC /M 5 Si 3 in-situ compound
74,Hf0.5 Nb0.667 Ta0.333 Ti1 Zr0.833,BCC,WROUGHT,BCC,,,8.4,,C,-268.8,2250.0,,,,,100,,,,10.1016/j.msea.2017.10.073,2018,Mechanical properties and thermally activated plasticity of the Ti30Zr25Hf15Nb20Ta10 high entropy alloy at temperatures 4.2–350 K
74,Hf0.5 Nb0.667 Ta0.333 Ti1 Zr0.833,BCC,WROUGHT,BCC,,,8.4,,C,-268.8,2210.0,,,,,100,,,,10.1016/j.msea.2017.10.073,2018,Mechanical properties and thermally activated plasticity of the Ti30Zr25Hf15Nb20Ta10 high entropy alloy at temperatures 4.2–350 K
74,Hf0.5 Nb0.667 Ta0.333 Ti1 Zr0.833,BCC,WROUGHT,BCC,,,8.4,,C,-196.0,1880.0,,,,,100,,,,10.1016/j.msea.2017.10.073,2018,Mechanical properties and thermally activated plasticity of the Ti30Zr25Hf15Nb20Ta10 high entropy alloy at temperatures 4.2–350 K
74,Hf0.5 Nb0.667 Ta0.333 Ti1 Zr0.833,BCC,WROUGHT,BCC,,,8.4,,C,-196.0,1750.0,,,,,100,,,,10.1016/j.msea.2017.10.073,2018,Mechanical properties and thermally activated plasticity of the Ti30Zr25Hf15Nb20Ta10 high entropy alloy at temperatures 4.2–350 K
74,Hf0.5 Nb0.667 Ta0.333 Ti1 Zr0.833,BCC,WROUGHT,BCC,,,8.4,,C,-153.0,1640.0,,,,,100,,,,10.1016/j.msea.2017.10.073,2018,Mechanical properties and thermally activated plasticity of the Ti30Zr25Hf15Nb20Ta10 high entropy alloy at temperatures 4.2–350 K
74,Hf0.5 Nb0.667 Ta0.333 Ti1 Zr0.833,BCC,WROUGHT,BCC,,,8.4,,C,-153.0,1550.0,,,,,100,,,,10.1016/j.msea.2017.10.073,2018,Mechanical properties and thermally activated plasticity of the Ti30Zr25Hf15Nb20Ta10 high entropy alloy at temperatures 4.2–350 K
74,Hf0.5 Nb0.667 Ta0.333 Ti1 Zr0.833,BCC,WROUGHT,BCC,,,8.4,,C,-103.0,1380.0,,,,,100,,,,10.1016/j.msea.2017.10.073,2018,Mechanical properties and thermally activated plasticity of the Ti30Zr25Hf15Nb20Ta10 high entropy alloy at temperatures 4.2–350 K
74,Hf0.5 Nb0.667 Ta0.333 Ti1 Zr0.833,BCC,WROUGHT,BCC,,,8.4,,C,-103.0,1370.0,,,,,100,,,,10.1016/j.msea.2017.10.073,2018,Mechanical properties and thermally activated plasticity of the Ti30Zr25Hf15Nb20Ta10 high entropy alloy at temperatures 4.2–350 K
74,Hf0.5 Nb0.667 Ta0.333 Ti1 Zr0.833,BCC,WROUGHT,BCC,,,8.4,,C,-43.0,1200.0,,,,,100,,,,10.1016/j.msea.2017.10.073,2018,Mechanical properties and thermally activated plasticity of the Ti30Zr25Hf15Nb20Ta10 high entropy alloy at temperatures 4.2–350 K
74,Hf0.5 Nb0.667 Ta0.333 Ti1 Zr0.833,BCC,WROUGHT,BCC,,,8.4,,C,-43.0,1180.0,,,,,100,,,,10.1016/j.msea.2017.10.073,2018,Mechanical properties and thermally activated plasticity of the Ti30Zr25Hf15Nb20Ta10 high entropy alloy at temperatures 4.2–350 K
74,Hf0.5 Nb0.667 Ta0.333 Ti1 Zr0.833,BCC,WROUGHT,BCC,,,8.4,,C,72.0,1040.0,,,,,100,,,,10.1016/j.msea.2017.10.073,2018,Mechanical properties and thermally activated plasticity of the Ti30Zr25Hf15Nb20Ta10 high entropy alloy at temperatures 4.2–350 K
74,Hf0.5 Nb0.667 Ta0.333 Ti1 Zr0.833,BCC,WROUGHT,BCC,,,8.4,,C,72.0,1020.0,,,,,100,,,,10.1016/j.msea.2017.10.073,2018,Mechanical properties and thermally activated plasticity of the Ti30Zr25Hf15Nb20Ta10 high entropy alloy at temperatures 4.2–350 K
74,Hf0.5 Nb0.667 Ta0.333 Ti1 Zr0.833,BCC,WROUGHT,BCC,,,8.4,,C,25.0,1150.0,,,,,100,,,,10.1016/j.msea.2017.10.073,2018,Mechanical properties and thermally activated plasticity of the Ti30Zr25Hf15Nb20Ta10 high entropy alloy at temperatures 4.2–350 K
74,Hf0.5 Nb0.667 Ta0.333 Ti1 Zr0.833,BCC,WROUGHT,BCC,,,8.4,,C,25.0,1100.0,,,,,100,,,,10.1016/j.msea.2017.10.073,2018,Mechanical properties and thermally activated plasticity of the Ti30Zr25Hf15Nb20Ta10 high entropy alloy at temperatures 4.2–350 K
74,Hf0.5 Nb0.667 Ta0.333 Ti1 Zr0.833,BCC,WROUGHT,BCC,,,8.4,,C,-268.8,2390.0,,,,,100,,,,10.1016/j.msea.2017.10.073,2018,Mechanical properties and thermally activated plasticity of the Ti30Zr25Hf15Nb20Ta10 high entropy alloy at temperatures 4.2–350 K
74,Hf0.5 Nb0.667 Ta0.333 Ti1 Zr0.833,BCC,WROUGHT,BCC,,,8.4,,C,-196.0,1920.0,,,,,100,,,,10.1016/j.msea.2017.10.073,2018,Mechanical properties and thermally activated plasticity of the Ti30Zr25Hf15Nb20Ta10 high entropy alloy at temperatures 4.2–350 K
74,Hf0.5 Nb0.667 Ta0.333 Ti1 Zr0.833,BCC,WROUGHT,BCC,,,8.4,,C,-153.0,1370.0,,,,,100,,,,10.1016/j.msea.2017.10.073,2018,Mechanical properties and thermally activated plasticity of the Ti30Zr25Hf15Nb20Ta10 high entropy alloy at temperatures 4.2–350 K
74,Hf0.5 Nb0.667 Ta0.333 Ti1 Zr0.833,BCC,WROUGHT,BCC,,,8.4,,C,-103.0,1250.0,,,,,100,,,,10.1016/j.msea.2017.10.073,2018,Mechanical properties and thermally activated plasticity of the Ti30Zr25Hf15Nb20Ta10 high entropy alloy at temperatures 4.2–350 K
74,Hf0.5 Nb0.667 Ta0.333 Ti1 Zr0.833,BCC,WROUGHT,BCC,,,8.4,,C,-43.0,1020.0,,,,,100,,,,10.1016/j.msea.2017.10.073,2018,Mechanical properties and thermally activated plasticity of the Ti30Zr25Hf15Nb20Ta10 high entropy alloy at temperatures 4.2–350 K
74,Hf0.5 Nb0.667 Ta0.333 Ti1 Zr0.833,BCC,WROUGHT,BCC,,,8.4,,C,72.0,640.0,,,,,100,,,,10.1016/j.msea.2017.10.073,2018,Mechanical properties and thermally activated plasticity of the Ti30Zr25Hf15Nb20Ta10 high entropy alloy at temperatures 4.2–350 K
74,Hf0.5 Nb0.667 Ta0.333 Ti1 Zr0.833,BCC,WROUGHT,BCC,,,8.4,,C,25.0,890.0,,,,,100,,,,10.1016/j.msea.2017.10.073,2018,Mechanical properties and thermally activated plasticity of the Ti30Zr25Hf15Nb20Ta10 high entropy alloy at temperatures 4.2–350 K
75,Hf1 Mo0.5 Nb1 Si0.3 Ti1 V0.5,BCC+Sec.,CAST,other,,,8.5,,C,1000.0,398.0,430.0,,,,,,,,10.1016/j.jallcom.2016.10.014,2017,Microstructure and mechanical properties of refractory HfMo0.5NbTiV0.5Six high-entropy composites
75,Hf1 Mo0.5 Nb1 Si0.3 Ti1 V0.5,BCC+Sec.,CAST,other,,,8.5,,C,25.0,1617.0,2016.0,,,,,,,,10.1016/j.jallcom.2016.10.014,2017,Microstructure and mechanical properties of refractory HfMo0.5NbTiV0.5Six high-entropy composites
75,Hf1 Mo0.5 Nb1 Si0.3 Ti1 V0.5,BCC+Sec.,CAST,other,,,8.5,,C,1200.0,166.0,187.0,,,,,,,,10.1016/j.jallcom.2016.10.014,2017,Microstructure and mechanical properties of refractory HfMo0.5NbTiV0.5Six high-entropy composites
75,Hf1 Mo0.5 Nb1 Si0.5 Ti1 V0.5,BCC+Sec.,CAST,other,,,8.2,,C,1000.0,614.0,696.0,,,,,,,,10.1016/j.jallcom.2016.10.014,2017,Microstructure and mechanical properties of refractory HfMo0.5NbTiV0.5Six high-entropy composites
75,Hf1 Mo0.5 Nb1 Si0.5 Ti1 V0.5,BCC+Sec.,CAST,other,,,8.2,,C,25.0,1787.0,2052.0,,,,,,,,10.1016/j.jallcom.2016.10.014,2017,Microstructure and mechanical properties of refractory HfMo0.5NbTiV0.5Six high-entropy composites
75,Hf1 Mo0.5 Nb1 Si0.5 Ti1 V0.5,BCC+Sec.,CAST,other,,,8.2,,C,1200.0,188.0,219.0,,,,,,,,10.1016/j.jallcom.2016.10.014,2017,Microstructure and mechanical properties of refractory HfMo0.5NbTiV0.5Six high-entropy composites
75,Hf1 Mo0.5 Nb1 Si0.7 Ti1 V0.5,BCC+Sec.,CAST,other,,,7.9,,C,1000.0,673.0,741.0,,,,,,,,10.1016/j.jallcom.2016.10.014,2017,Microstructure and mechanical properties of refractory HfMo0.5NbTiV0.5Six high-entropy composites
75,Hf1 Mo0.5 Nb1 Si0.7 Ti1 V0.5,BCC+Sec.,CAST,other,,,7.9,,C,25.0,2134.0,2242.0,,,,,,,,10.1016/j.jallcom.2016.10.014,2017,Microstructure and mechanical properties of refractory HfMo0.5NbTiV0.5Six high-entropy composites
75,Hf1 Mo0.5 Nb1 Si0.7 Ti1 V0.5,BCC+Sec.,CAST,other,,,7.9,,C,1200.0,235.0,268.0,,,,,,,,10.1016/j.jallcom.2016.10.014,2017,Microstructure and mechanical properties of refractory HfMo0.5NbTiV0.5Six high-entropy composites
75,Hf1 Mo0.5 Nb1 Ti1 V0.5,BCC,CAST,BCC,,,9.0,,C,1000.0,368.0,394.0,,,,126,,,,10.1016/j.jallcom.2016.10.014,2017,Microstructure and mechanical properties of refractory HfMo0.5NbTiV0.5Six high-entropy composites
75,Hf1 Mo0.5 Nb1 Ti1 V0.5,BCC,CAST,BCC,,,9.0,,C,1200.0,60.0,,,,,126,,,,10.1016/j.jallcom.2016.10.014,2017,Microstructure and mechanical properties of refractory HfMo0.5NbTiV0.5Six high-entropy composites
75,Hf1 Mo0.5 Nb1 Ti1 V0.5,BCC,CAST,BCC,,,9.0,,C,25.0,1260.0,,,,,126,,,,10.1016/j.jallcom.2016.10.014,2017,Microstructure and mechanical properties of refractory HfMo0.5NbTiV0.5Six high-entropy composites
76,Hf0.787 Nb0.142 Ta0.142 Ti1 Zr0.787,BCC,WROUGHT,BCC,,,8.5,,T,25.0,540.0,995.0,,,,92,,,,10.1080/21663831.2016.1221861,2016,Design and tensile properties of a bcc Ti-rich high-entropy alloy with transformation-induced plasticity
77,Al0.25 Nb1 Ta1 Ti1 Zr1,BCC+B2,OTHER,other,,,8.6,,C,1000.0,366.0,408.0,,,,,,,,10.1016/j.matdes.2017.11.033,2018,Compositional variation effects on the microstructure and properties of a refractory high-entropy superalloy AlMo0.5NbTa0.5TiZr
77,Al0.25 Nb1 Ta1 Ti1 Zr1,BCC+B2,OTHER,other,,,8.6,,C,25.0,1745.0,1830.0,,,,,,,,10.1016/j.matdes.2017.11.033,2018,Compositional variation effects on the microstructure and properties of a refractory high-entropy superalloy AlMo0.5NbTa0.5TiZr
77,Al0.5 Mo0.5 Nb1 Ta0.5 Ti1 Zr1,BCC+B2,OTHER,other,,,7.6,,C,1000.0,579.0,646.0,,,,,,,,10.1016/j.matdes.2017.11.033,2018,Compositional variation effects on the microstructure and properties of a refractory high-entropy superalloy AlMo0.5NbTa0.5TiZr
77,Al0.5 Mo0.5 Nb1 Ta0.5 Ti1 Zr1,BCC+B2,OTHER,other,,,7.6,,C,25.0,2350.0,2460.0,,,,,,,,10.1016/j.matdes.2017.11.033,2018,Compositional variation effects on the microstructure and properties of a refractory high-entropy superalloy AlMo0.5NbTa0.5TiZr
77,Al1 Mo0.5 Nb1 Ta0.5 Ti1 Zr1,BCC+B2,OTHER,other,,,7.1,,C,25.0,2197.0,2370.0,,,,,,,,10.1016/j.matdes.2017.11.033,2018,Compositional variation effects on the microstructure and properties of a refractory high-entropy superalloy AlMo0.5NbTa0.5TiZr
77,Al1 Mo0.5 Nb1 Ta0.5 Ti1 Zr0.5,B2,OTHER,other,,,7.2,,C,1000.0,935.0,1019.0,,,,,,,,10.1016/j.matdes.2017.11.033,2018,Compositional variation effects on the microstructure and properties of a refractory high-entropy superalloy AlMo0.5NbTa0.5TiZr
77,Al1 Mo0.5 Nb1 Ta0.5 Ti1 Zr0.5,B2,OTHER,other,,,7.2,,C,25.0,,1320.0,,,,,,,,10.1016/j.matdes.2017.11.033,2018,Compositional variation effects on the microstructure and properties of a refractory high-entropy superalloy AlMo0.5NbTa0.5TiZr
77,Al1 Nb1 Ta0.5 Ti1 Zr0.5,B2,OTHER,other,,,6.9,,C,1000.0,535.0,542.0,,,,,,,,10.1016/j.matdes.2017.11.033,2018,Compositional variation effects on the microstructure and properties of a refractory high-entropy superalloy AlMo0.5NbTa0.5TiZr
77,Al1 Nb1 Ta0.5 Ti1 Zr0.5,B2,OTHER,other,,,6.9,,C,25.0,1352.0,1357.0,,,,,,,,10.1016/j.matdes.2017.11.033,2018,Compositional variation effects on the microstructure and properties of a refractory high-entropy superalloy AlMo0.5NbTa0.5TiZr
78,Hf1 Nb1 Si0.5 Ti1 V1 Zr1,BCC+Laves+Sec.,ANNEAL,other,,,7.5,,C,400.0,1273.0,1335.0,14.5,,,,,,,10.4028/www.scientific.net/MSF.849.76,2016,Microstructure and Mechanical Properties of a New Refractory HfNbSisub0.5/subTiVZr High Entropy Alloy
78,Hf1 Nb1 Si0.5 Ti1 V1 Zr1,BCC+Laves+Sec.,ANNEAL,other,,,7.5,,C,600.0,597.0,651.0,50.0,,,,,,,10.4028/www.scientific.net/MSF.849.76,2016,Microstructure and Mechanical Properties of a New Refractory HfNbSisub0.5/subTiVZr High Entropy Alloy
78,Hf1 Nb1 Si0.5 Ti1 V1 Zr1,BCC+Laves+Sec.,ANNEAL,other,,,7.5,,C,800.0,102.0,107.0,50.0,,,,,,,10.4028/www.scientific.net/MSF.849.76,2016,Microstructure and Mechanical Properties of a New Refractory HfNbSisub0.5/subTiVZr High Entropy Alloy
78,Hf1 Nb1 Si0.5 Ti1 V1 Zr1,BCC+Laves+Sec.,ANNEAL,other,,,7.5,,C,25.0,1483.0,1611.0,9.5,,,,,,,10.4028/www.scientific.net/MSF.849.76,2016,Microstructure and Mechanical Properties of a New Refractory HfNbSisub0.5/subTiVZr High Entropy Alloy
78,Hf1 Nb1 Si0.5 Ti1 V1 Zr1,BCC+Laves+Sec.,CAST,other,,,7.5,,C,600.0,920.0,1252.0,50.0,,,,,,,10.4028/www.scientific.net/MSF.849.76,2016,Microstructure and Mechanical Properties of a New Refractory HfNbSisub0.5/subTiVZr High Entropy Alloy
78,Hf1 Nb1 Si0.5 Ti1 V1 Zr1,BCC+Laves+Sec.,CAST,other,,,7.5,,C,800.0,371.0,427.0,50.0,,,,,,,10.4028/www.scientific.net/MSF.849.76,2016,Microstructure and Mechanical Properties of a New Refractory HfNbSisub0.5/subTiVZr High Entropy Alloy
78,Hf1 Nb1 Si0.5 Ti1 V1 Zr1,BCC+Laves+Sec.,CAST,other,,,7.5,,C,25.0,1540.0,1643.0,16.8,,,,,,,10.4028/www.scientific.net/MSF.849.76,2016,Microstructure and Mechanical Properties of a New Refractory HfNbSisub0.5/subTiVZr High Entropy Alloy
79,Hf1 Nb1 Ta1 Ti1 Zr1,BCC,OTHER,BCC,0.05,,9.9,420.0,T,25.0,1900.0,,7.9,,,107,,,,10.1016/j.actamat.2017.09.035,2018,
79,Hf1 Nb1 Ta1 Ti1 Zr1,BCC+HCP,OTHER,other,0.05,,9.9,530.0,T,25.0,1520.0,,1.7,,,,,,,10.1016/j.actamat.2017.09.035,2018,
79,Hf1 Nb1 Ta1 Ti1 Zr1,BCC+BCC+HCP,OTHER,other,0.1,,9.9,340.0,T,25.0,795.0,,5.0,,,,,,,10.1016/j.actamat.2017.09.035,2018,
79,Hf1 Nb1 Ta1 Ti1 Zr1,BCC,WROUGHT,BCC,100.0,,9.9,309.0,T,25.0,830.0,840.0,9.2,,,107,,,,10.1016/j.actamat.2017.09.035,2018,
80,Hf1 Nb1 Ta1 Ti1 Zr1,BCC,WROUGHT,BCC,,,9.9,366.0,T,25.0,1202.0,1295.0,4.7,,,107,,,,10.1016/j.jallcom.2015.07.209,2015,Microstructure and properties of a refractory high-entropy alloy after cold working
80,Hf1 Nb1 Ta1 Ti1 Zr1,BCC+BCC,WROUGHT,other,,,9.9,,T,25.0,1303.0,1334.0,,,,,,,,10.1016/j.jallcom.2015.07.209,2015,Microstructure and properties of a refractory high-entropy alloy after cold working
80,Hf1 Nb1 Ta1 Ti1 Zr1,BCC,WROUGHT,BCC,,,9.9,351.0,T,25.0,1145.0,1262.0,9.7,,,107,,,,10.1016/j.jallcom.2015.07.209,2015,Microstructure and properties of a refractory high-entropy alloy after cold working