IDENTIFIER: Reference ID,FORMULA,PROPERTY: Microstructure,PROPERTY: Processing method,PROPERTY: BCC/FCC/other,PROPERTY: grain size ($\mu$m),PROPERTY: Exp. Density (g/cm$^3$),PROPERTY: Computed Density (g/cm$^3$),PROPERTY: HV,PROPERTY: Type of test,PROPERTY: Test temperature ($^\circ$C),PROPERTY: YS (MPa),PROPERTY: UTS (MPa),PROPERTY: Elongation (%),PROPERTY: Elongation plastic (%),PROPERTY: Exp. Young modulus (GPa),PROPERTY: Computed Young modulus (GPa),PROPERTY: O content (wppm),PROPERTY: N content (wppm),PROPERTY: C content (wppm),REFERENCE: doi,REFERENCE: year,REFERENCE: title
257,Cr1 Mo1 Ta1 Ti1,BCC,CAST,BCC,,,9.6,539.0,,,,,,,,228,,,,10.1016/j.matdes.2018.06.003,2018,"Phase equilibria, mechanical properties and design of quaternary refractory high entropy alloys"
257,Cr1 Nb1 Ta1 Ti1,BCC+Laves (C15),ANNEAL,other,,,9.2,,,,,,,,,172,,,,10.1016/j.matdes.2018.06.003,2018,"Phase equilibria, mechanical properties and design of quaternary refractory high entropy alloys"
257,Cr1 Nb1 Ta1 Ti1,BCC,CAST,BCC,,,9.2,495.0,,,,,,,,172,,,,10.1016/j.matdes.2018.06.003,2018,"Phase equilibria, mechanical properties and design of quaternary refractory high entropy alloys"
257,Cr1 Nb1 Ti1 W1,BCC+Laves (C15),ANNEAL,other,,,9.9,630.0,,,,,,,,228,,,,10.1016/j.matdes.2018.06.003,2018,"Phase equilibria, mechanical properties and design of quaternary refractory high entropy alloys"
257,Cr1 Nb1 Ti1 W1,BCC,CAST,BCC,,,9.9,630.0,,,,,,,,228,,,,10.1016/j.matdes.2018.06.003,2018,"Phase equilibria, mechanical properties and design of quaternary refractory high entropy alloys"
257,Hf1 Nb1 Ta1 Ti1,BCC,ANNEAL,BCC,,,10.8,280.0,,,,,,,,121,,,,10.1016/j.matdes.2018.06.003,2018,"Phase equilibria, mechanical properties and design of quaternary refractory high entropy alloys"
257,Hf1 Nb1 Ta1 Ti1,BCC,CAST,BCC,,,10.8,270.0,,,,,,,,121,,,,10.1016/j.matdes.2018.06.003,2018,"Phase equilibria, mechanical properties and design of quaternary refractory high entropy alloys"
257,Mo1 Nb1 Ta1 Ti1 W1,BCC,ANNEAL,BCC,,,11.9,482.0,,,,,,,,229,,,,10.1016/j.matdes.2018.06.003,2018,"Phase equilibria, mechanical properties and design of quaternary refractory high entropy alloys"
257,Mo1 Nb1 Ta1 Ti1 W1,BCC,CAST,BCC,,,11.9,446.0,,,,,,,,229,,,,10.1016/j.matdes.2018.06.003,2018,"Phase equilibria, mechanical properties and design of quaternary refractory high entropy alloys"
257,Mo1 Nb1 Ta1 Ti1,BCC,ANNEAL,BCC,,,10.0,407.0,,,,,,,,184,,,,10.1016/j.matdes.2018.06.003,2018,"Phase equilibria, mechanical properties and design of quaternary refractory high entropy alloys"
257,Mo1 Nb1 Ta1 Ti1,BCC,CAST,BCC,,,10.0,431.0,,,,,,,,184,,,,10.1016/j.matdes.2018.06.003,2018,"Phase equilibria, mechanical properties and design of quaternary refractory high entropy alloys"
142,Al0.3 Co1 Cr1 Fe1 Ni1,,WROUGHT,other,0.71,,7.8,,T,25.0,900.0,1074.0,25.0,,,214,,,,10.1016/j.scriptamat.2018.08.048,2019,Fatigue behavior of ultrafine grained triplex Al0.3CoCrFeNi high entropy alloy
152,Cr0.5 Fe1 Mn0.625 Ni0.375,,CAST,other,75.0,,7.8,,C,25.0,219.0,,,,,220,,,,10.1016/j.jallcom.2018.08.093,2019,Effect of Al on structure and mechanical properties of Fe-Mn-Cr-Ni-Al non-equiatomic high entropy alloys with high Fe content
152,Al0.05 Cr0.5 Fe1 Mn0.625 Ni0.375,,CAST,other,,,7.7,,C,25.0,354.0,,,,,217,,,,10.1016/j.jallcom.2018.08.093,2019,Effect of Al on structure and mechanical properties of Fe-Mn-Cr-Ni-Al non-equiatomic high entropy alloys with high Fe content
152,Al0.15 Cr0.5 Fe1 Mn0.625 Ni0.375,,CAST,other,,,7.5,,C,25.0,550.0,,,,,211,,,,10.1016/j.jallcom.2018.08.093,2019,Effect of Al on structure and mechanical properties of Fe-Mn-Cr-Ni-Al non-equiatomic high entropy alloys with high Fe content
152,Al0.25 Cr0.5 Fe1 Mn0.625 Ni0.375,,CAST,other,175.0,,7.3,,C,25.0,994.0,,,,,206,,,,10.1016/j.jallcom.2018.08.093,2019,Effect of Al on structure and mechanical properties of Fe-Mn-Cr-Ni-Al non-equiatomic high entropy alloys with high Fe content
152,Al0.35 Cr0.5 Fe1 Mn0.625 Ni0.375,,CAST,other,175.0,,7.2,,C,25.0,942.0,,,,,201,,,,10.1016/j.jallcom.2018.08.093,2019,Effect of Al on structure and mechanical properties of Fe-Mn-Cr-Ni-Al non-equiatomic high entropy alloys with high Fe content
152,Cr0.5 Fe1 Mn0.625 Ni0.375,,CAST,other,,,7.8,,C,400.0,132.0,,,,,220,,,,10.1016/j.jallcom.2018.08.093,2019,Effect of Al on structure and mechanical properties of Fe-Mn-Cr-Ni-Al non-equiatomic high entropy alloys with high Fe content
152,Al0.05 Cr0.5 Fe1 Mn0.625 Ni0.375,,CAST,other,,,7.7,,C,400.0,260.0,,,,,217,,,,10.1016/j.jallcom.2018.08.093,2019,Effect of Al on structure and mechanical properties of Fe-Mn-Cr-Ni-Al non-equiatomic high entropy alloys with high Fe content
152,Al0.15 Cr0.5 Fe1 Mn0.625 Ni0.375,,CAST,other,,,7.5,,C,400.0,469.0,,,,,211,,,,10.1016/j.jallcom.2018.08.093,2019,Effect of Al on structure and mechanical properties of Fe-Mn-Cr-Ni-Al non-equiatomic high entropy alloys with high Fe content
152,Al0.25 Cr0.5 Fe1 Mn0.625 Ni0.375,,CAST,other,,,7.3,,C,400.0,943.0,,,,,206,,,,10.1016/j.jallcom.2018.08.093,2019,Effect of Al on structure and mechanical properties of Fe-Mn-Cr-Ni-Al non-equiatomic high entropy alloys with high Fe content
152,Al0.35 Cr0.5 Fe1 Mn0.625 Ni0.375,,CAST,other,,,7.2,,C,400.0,833.0,,,,,201,,,,10.1016/j.jallcom.2018.08.093,2019,Effect of Al on structure and mechanical properties of Fe-Mn-Cr-Ni-Al non-equiatomic high entropy alloys with high Fe content
152,Cr0.5 Fe1 Mn0.625 Ni0.375,,CAST,other,,,7.8,,C,600.0,115.0,,,,,220,,,,10.1016/j.jallcom.2018.08.093,2019,Effect of Al on structure and mechanical properties of Fe-Mn-Cr-Ni-Al non-equiatomic high entropy alloys with high Fe content
152,Al0.05 Cr0.5 Fe1 Mn0.625 Ni0.375,,CAST,other,,,7.7,,C,600.0,155.0,,,,,217,,,,10.1016/j.jallcom.2018.08.093,2019,Effect of Al on structure and mechanical properties of Fe-Mn-Cr-Ni-Al non-equiatomic high entropy alloys with high Fe content
152,Al0.15 Cr0.5 Fe1 Mn0.625 Ni0.375,,CAST,other,,,7.5,,C,600.0,272.0,,,,,211,,,,10.1016/j.jallcom.2018.08.093,2019,Effect of Al on structure and mechanical properties of Fe-Mn-Cr-Ni-Al non-equiatomic high entropy alloys with high Fe content
152,Al0.25 Cr0.5 Fe1 Mn0.625 Ni0.375,,CAST,other,,,7.3,,C,600.0,359.0,,,,,206,,,,10.1016/j.jallcom.2018.08.093,2019,Effect of Al on structure and mechanical properties of Fe-Mn-Cr-Ni-Al non-equiatomic high entropy alloys with high Fe content
152,Al0.35 Cr0.5 Fe1 Mn0.625 Ni0.375,,CAST,other,,,7.2,,C,600.0,326.0,,,,,201,,,,10.1016/j.jallcom.2018.08.093,2019,Effect of Al on structure and mechanical properties of Fe-Mn-Cr-Ni-Al non-equiatomic high entropy alloys with high Fe content
193,Co1 Cr1 Fe1 Mn1 Ni1,FCC,WROUGHT,FCC,4.4,,8.1,,T,25.0,370.0,670.0,56.0,,,219,,,,10.1016/j.actamat.2013.06.018,2013,The influences of temperature and microstructure on the tensile properties of a CoCrFeMnNi high-entropy alloy
169,Co0.2 Cr0.2 Fe1 Mn0.6,,ANNEAL,other,45.0,,7.8,,T,25.0,250.0,730.0,50.0,,,214,,,,10.1016/j.actamat.2017.03.069,2017,A TRIP-assisted dual-phase high-entropy alloy: Grain size and phase fraction effects on deformation behavior
169,Co0.2 Cr0.2 Fe1 Mn0.6,,WROUGHT,other,4.5,,7.8,,T,25.0,330.0,870.0,75.0,,,214,,,,10.1016/j.actamat.2017.03.069,2017,A TRIP-assisted dual-phase high-entropy alloy: Grain size and phase fraction effects on deformation behavior
169,Co0.2 Cr0.2 Fe1 Mn0.6,,WROUGHT,other,6.0,,7.8,,T,25.0,280.0,800.0,65.0,,,214,,,,10.1016/j.actamat.2017.03.069,2017,A TRIP-assisted dual-phase high-entropy alloy: Grain size and phase fraction effects on deformation behavior
169,Co0.2 Cr0.2 Fe1 Mn0.6,,WROUGHT,other,15.0,,7.8,,T,25.0,350.0,830.0,63.0,,,214,,,,10.1016/j.actamat.2017.03.069,2017,A TRIP-assisted dual-phase high-entropy alloy: Grain size and phase fraction effects on deformation behavior
171,Co0.2 Cr0.2 Fe1 Mn0.6,,WROUGHT,other,6.5,,7.8,,T,25.0,298.0,1400.0,45.0,,,214,,,,10.1038/s41598-017-16509-9,2017,Enhanced strength and ductility in a friction stir processing engineered dual phase high entropy alloy
171,Co0.2 Cr0.2 Fe1 Mn0.6,,WROUGHT,other,5.2,,7.8,,T,25.0,400.0,1200.0,42.0,,,214,,,,10.1038/s41598-017-16509-9,2017,Enhanced strength and ductility in a friction stir processing engineered dual phase high entropy alloy
178,Al0.304 Co1 Cr1 Fe1 Ni1,,,other,0.7,,7.8,,T,25.0,860.0,1050.0,48.0,,,214,,,,10.1016/j.matlet.2017.04.072,2017,Formation of ultrafine-grained microstructure in Al 0.3 CoCrFeNi high entropy alloys with grain boundary precipitates
178,Al0.304 Co1 Cr1 Fe1 Ni1,,,other,2.7,,7.8,,T,25.0,690.0,930.0,51.0,,,214,,,,10.1016/j.matlet.2017.04.072,2017,Formation of ultrafine-grained microstructure in Al 0.3 CoCrFeNi high entropy alloys with grain boundary precipitates
178,Al0.304 Co1 Cr1 Fe1 Ni1,,,other,3.8,,7.8,,T,25.0,550.0,800.0,64.0,,,214,,,,10.1016/j.matlet.2017.04.072,2017,Formation of ultrafine-grained microstructure in Al 0.3 CoCrFeNi high entropy alloys with grain boundary precipitates
178,Al0.304 Co1 Cr1 Fe1 Ni1,FCC,,FCC,53.0,,7.8,,T,25.0,260.0,620.0,87.0,,,214,,,,10.1016/j.matlet.2017.04.072,2017,Formation of ultrafine-grained microstructure in Al 0.3 CoCrFeNi high entropy alloys with grain boundary precipitates
178,Al0.304 Co1 Cr1 Fe1 Ni1,,WROUGHT,other,,,7.8,,,,,,,,,214,,,,10.1016/j.matlet.2017.04.072,2017,Formation of ultrafine-grained microstructure in Al 0.3 CoCrFeNi high entropy alloys with grain boundary precipitates
174,Al0.304 Co1 Cr1 Fe1 Ni1,FCC,WROUGHT,FCC,,,7.8,,,,,,,,,214,,,,10.1016/j.scriptamat.2016.06.019,2016,Stability of ordered L12 and B2 precipitates in face centered cubic based high entropy alloys - Al0.3CoFeCrNi and Al0.3CuFeCrNi2
174,Al0.304 Co1 Cr1 Fe1 Ni1,,WROUGHT,other,,,7.8,,,,,,,,,214,,,,10.1016/j.scriptamat.2016.06.019,2016,Stability of ordered L12 and B2 precipitates in face centered cubic based high entropy alloys - Al0.3CoFeCrNi and Al0.3CuFeCrNi2
173,Al0.304 Co1 Cr1 Fe1 Ni1,FCC,WROUGHT,FCC,144.0,,7.8,,T,25.0,159.0,410.0,65.0,,,214,,,,10.1016/j.matdes.2017.02.072,2017,Optimizing the coupled effects of Hall-Petch and precipitation strengthening in a Al 0.3 CoCrFeNi high entropy alloy
173,Al0.304 Co1 Cr1 Fe1 Ni1,,WROUGHT,other,144.0,,7.8,,T,25.0,215.0,520.0,43.0,,,214,,,,10.1016/j.matdes.2017.02.072,2017,Optimizing the coupled effects of Hall-Petch and precipitation strengthening in a Al 0.3 CoCrFeNi high entropy alloy
173,Al0.304 Co1 Cr1 Fe1 Ni1,,WROUGHT,other,144.0,,7.8,,T,25.0,285.0,540.0,55.0,,,214,,,,10.1016/j.matdes.2017.02.072,2017,Optimizing the coupled effects of Hall-Petch and precipitation strengthening in a Al 0.3 CoCrFeNi high entropy alloy
173,Al0.304 Co1 Cr1 Fe1 Ni1,FCC,WROUGHT,FCC,23.0,,7.8,,T,25.0,263.0,589.0,60.0,,,214,,,,10.1016/j.matdes.2017.02.072,2017,Optimizing the coupled effects of Hall-Petch and precipitation strengthening in a Al 0.3 CoCrFeNi high entropy alloy
173,Al0.304 Co1 Cr1 Fe1 Ni1,,WROUGHT,other,23.0,,7.8,,T,25.0,490.0,840.0,45.0,,,214,,,,10.1016/j.matdes.2017.02.072,2017,Optimizing the coupled effects of Hall-Petch and precipitation strengthening in a Al 0.3 CoCrFeNi high entropy alloy
179,Al0.304 Co1 Cr1 Fe1 Ni1,,ANNEAL,other,,,7.8,,,,,,,,,214,,,,10.1016/j.actamat.2017.03.066,2017,Secondary phases in AlxCoCrFeNi high-entropy alloys: An in-situ TEM heating study and thermodynamic appraisal
180,Al0.304 Co1 Cr1 Fe1 Ni1,,CAST,other,,,7.8,,T,25.0,175.0,335.0,58.0,,,214,,,,10.1016/j.jallcom.2008.12.088,2009,Microstructure and tensile behaviors of FCC Al0.3CoCrFeNi high entropy alloy
180,Al0.304 Co1 Cr1 Fe1 Ni1,,ANNEAL,other,,,7.8,,T,25.0,305.0,525.0,44.0,,,214,,,,10.1016/j.jallcom.2008.12.088,2009,Microstructure and tensile behaviors of FCC Al0.3CoCrFeNi high entropy alloy
180,Al0.304 Co1 Cr1 Fe1 Ni1,,ANNEAL,other,,,7.8,,T,25.0,280.0,570.0,44.0,,,214,,,,10.1016/j.jallcom.2008.12.088,2009,Microstructure and tensile behaviors of FCC Al0.3CoCrFeNi high entropy alloy
181,Al0.304 Co1 Cr1 Fe1 Ni1,FCC,ANNEAL,FCC,,,7.8,,,,,,,,,214,,,,10.1016/j.jallcom.2013.11.084,2014,"Phases, microstructure and mechanical properties of AlxCoCrFeNi high-entropy alloys at elevated temperatures"
182,Al0.304 Co1 Cr1 Fe1 Ni1,,ANNEAL,other,,,7.8,,,,,,,,,214,,,,10.1016/j.matdes.2016.05.079,2016,The effect of grain size on the annealing-induced phase transformation in an Al0·3CoCrFeNi high entropy alloy
184,Al1 Co1 Cr1 Fe1 Ni1,,CAST,other,,,7.1,,T,25.0,395.0,400.0,1.0,,,194,,,,10.1016/j.jallcom.2017.03.307,2017,In-situ study of crack initiation and propagation in a dual phase AlCoCrFeNi high entropy alloy
183,Al1 Co1 Cr1 Fe1 Ni1,,CAST,other,,,7.1,,C,25.0,1380.0,,10.0,,,194,,,,10.1016/j.jallcom.2016.05.034,2016,Heat treatment impacts the micro-structure and mechanical properties of AlCoCrFeNi high entropy alloy
183,Al1 Co1 Cr1 Fe1 Ni1,,ANNEAL,other,,,7.1,,C,25.0,1430.0,,1.6,,,194,,,,10.1016/j.jallcom.2016.05.034,2016,Heat treatment impacts the micro-structure and mechanical properties of AlCoCrFeNi high entropy alloy
183,Al1 Co1 Cr1 Fe1 Ni1,,ANNEAL,other,,,7.1,,C,25.0,1690.0,,2.7,,,194,,,,10.1016/j.jallcom.2016.05.034,2016,Heat treatment impacts the micro-structure and mechanical properties of AlCoCrFeNi high entropy alloy
183,Al1 Co1 Cr1 Fe1 Ni1,,ANNEAL,other,,,7.1,,C,25.0,1220.0,,13.0,,,194,,,,10.1016/j.jallcom.2016.05.034,2016,Heat treatment impacts the micro-structure and mechanical properties of AlCoCrFeNi high entropy alloy
183,Al1 Co1 Cr1 Fe1 Ni1,,ANNEAL,other,,,7.1,,C,25.0,1450.0,,20.0,,,194,,,,10.1016/j.jallcom.2016.05.034,2016,Heat treatment impacts the micro-structure and mechanical properties of AlCoCrFeNi high entropy alloy
184,Al1 Co1 Cr1 Fe1 Ni1,,ANNEAL,other,,,7.1,,T,25.0,900.0,935.0,0.8,,,194,,,,10.1016/j.jallcom.2017.03.307,2017,In-situ study of crack initiation and propagation in a dual phase AlCoCrFeNi high entropy alloy
186,Al0.515 Cr0.515 Fe1 Ni1,,CAST,other,,,7.2,,T,25.0,796.0,1437.0,15.7,,,195,,,,10.1016/j.matlet.2016.01.096,2016,A multi-component AlCrFe2Ni2 alloy with excellent mechanical properties
187,Al0.511 Co0.511 Cr0.511 Fe0.511 Ni1,,,other,,,7.4,,T,25.0,545.0,1030.0,16.5,,,195,,,,10.1016/j.actamat.2016.11.016,2017,Directly cast bulk eutectic and near-eutectic high entropy alloys with balanced strength and ductility in a wide temperature range
187,Al0.465 Co0.465 Cr0.465 Fe0.465 Ni1,,,other,,,7.4,,T,25.0,545.0,1050.0,16.5,,,195,,,,10.1016/j.actamat.2016.11.016,2017,Directly cast bulk eutectic and near-eutectic high entropy alloys with balanced strength and ductility in a wide temperature range
187,Al0.451 Co0.451 Cr0.451 Fe0.451 Ni1,,,other,,,7.5,,T,25.0,545.0,1110.0,20.0,,,195,,,,10.1016/j.actamat.2016.11.016,2017,Directly cast bulk eutectic and near-eutectic high entropy alloys with balanced strength and ductility in a wide temperature range
187,Al0.511 Co0.511 Cr0.511 Fe0.511 Ni1,,,other,,,7.4,,T,-70.0,580.0,1034.0,10.5,,,195,,,,10.1016/j.actamat.2016.11.016,2017,Directly cast bulk eutectic and near-eutectic high entropy alloys with balanced strength and ductility in a wide temperature range
187,Al0.465 Co0.465 Cr0.465 Fe0.465 Ni1,,,other,,,7.4,,T,-70.0,595.0,1168.0,15.8,,,195,,,,10.1016/j.actamat.2016.11.016,2017,Directly cast bulk eutectic and near-eutectic high entropy alloys with balanced strength and ductility in a wide temperature range
187,Al0.451 Co0.451 Cr0.451 Fe0.451 Ni1,,,other,,,7.5,,T,-70.0,570.0,1143.0,18.0,,,195,,,,10.1016/j.actamat.2016.11.016,2017,Directly cast bulk eutectic and near-eutectic high entropy alloys with balanced strength and ductility in a wide temperature range
187,Al0.511 Co0.511 Cr0.511 Fe0.511 Ni1,,,other,,,7.4,,T,-192.0,700.0,1000.0,4.0,,,195,,,,10.1016/j.actamat.2016.11.016,2017,Directly cast bulk eutectic and near-eutectic high entropy alloys with balanced strength and ductility in a wide temperature range
187,Al0.465 Co0.465 Cr0.465 Fe0.465 Ni1,,,other,,,7.4,,T,-192.0,700.0,1000.0,7.0,,,195,,,,10.1016/j.actamat.2016.11.016,2017,Directly cast bulk eutectic and near-eutectic high entropy alloys with balanced strength and ductility in a wide temperature range
187,Al0.451 Co0.451 Cr0.451 Fe0.451 Ni1,,,other,,,7.5,,T,-192.0,700.0,1000.0,9.0,,,195,,,,10.1016/j.actamat.2016.11.016,2017,Directly cast bulk eutectic and near-eutectic high entropy alloys with balanced strength and ductility in a wide temperature range
190,Al0.343 Co0.514 Cr0.514 Fe1 Ni0.514,,CAST,other,,,7.5,,T,25.0,866.0,1223.0,7.9,,,204,,,,10.1016/j.scriptamat.2016.04.014,2016,
190,Al0.343 Co0.514 Cr0.514 Fe1 Ni0.514,,CAST,other,,,7.5,,T,650.0,400.0,468.0,6.3,,,204,,,,10.1016/j.scriptamat.2016.04.014,2016,
190,Al0.343 Co0.514 Cr0.514 Fe1 Ni0.514,,CAST,other,,,7.5,,T,700.0,220.0,340.0,5.4,,,204,,,,10.1016/j.scriptamat.2016.04.014,2016,
190,Al0.343 Co0.514 Cr0.514 Fe1 Ni0.514,,CAST,other,,,7.5,,C,25.0,1166.0,,30.2,,,204,,,,10.1016/j.scriptamat.2016.04.014,2016,
194,Co1 Cr0.429 Fe0.571 Mo0.286 Ni0.571,FCC,CAST,FCC,,,8.6,,T,25.0,350.0,720.0,21.9,,,230,,,,10.1016/j.scriptamat.2017.05.019,2017,Precipitation strengthening of ductile Cr 15 Fe 20 Co 35 Ni 20 Mo 10 alloys
194,Co1 Cr0.429 Fe0.571 Mo0.286 Ni0.571,,WROUGHT,other,,,8.6,,T,25.0,1311.0,1410.0,12.1,,,230,,,,10.1016/j.scriptamat.2017.05.019,2017,Precipitation strengthening of ductile Cr 15 Fe 20 Co 35 Ni 20 Mo 10 alloys
194,Co1 Cr0.429 Fe0.571 Mo0.286 Ni0.571,,WROUGHT,other,,,8.6,,T,25.0,1212.0,1360.0,14.9,,,230,,,,10.1016/j.scriptamat.2017.05.019,2017,Precipitation strengthening of ductile Cr 15 Fe 20 Co 35 Ni 20 Mo 10 alloys
194,Co1 Cr0.429 Fe0.571 Mo0.286 Ni0.571,,WROUGHT,other,,,8.6,,T,25.0,1028.0,1249.0,18.3,,,230,,,,10.1016/j.scriptamat.2017.05.019,2017,Precipitation strengthening of ductile Cr 15 Fe 20 Co 35 Ni 20 Mo 10 alloys
194,Co1 Cr0.429 Fe0.571 Mo0.286 Ni0.571,,WROUGHT,other,,,8.6,,T,25.0,879.0,1194.0,25.4,,,230,,,,10.1016/j.scriptamat.2017.05.019,2017,Precipitation strengthening of ductile Cr 15 Fe 20 Co 35 Ni 20 Mo 10 alloys
194,Co1 Cr0.429 Fe0.571 Mo0.286 Ni0.571,,WROUGHT,other,,,8.6,,T,25.0,799.0,1127.0,28.2,,,230,,,,10.1016/j.scriptamat.2017.05.019,2017,Precipitation strengthening of ductile Cr 15 Fe 20 Co 35 Ni 20 Mo 10 alloys
194,Co1 Cr0.429 Fe0.571 Mo0.286 Ni0.571,FCC,WROUGHT,FCC,,,8.6,,T,25.0,350.0,918.0,62.4,,,230,,,,10.1016/j.scriptamat.2017.05.019,2017,Precipitation strengthening of ductile Cr 15 Fe 20 Co 35 Ni 20 Mo 10 alloys
192,Co1 Cr1 Fe1 Ni1,FCC,CAST,FCC,,,8.2,,T,25.0,155.0,472.4,58.9,,,225,,,,10.1016/j.actamat.2016.06.063,2016,Ductile CoCrFeNiMox high entropy alloys strengthened by hard intermetallic phases
192,Co1 Cr1 Fe1 Mo0.083 Ni1,,CAST,other,,,8.2,,T,25.0,198.8,479.0,51.1,,,227,,,,10.1016/j.actamat.2016.06.063,2016,Ductile CoCrFeNiMox high entropy alloys strengthened by hard intermetallic phases
192,Co1 Cr1 Fe1 Mo0.208 Ni1,,CAST,other,,,8.3,,T,25.0,254.7,589.6,55.1,,,230,,,,10.1016/j.actamat.2016.06.063,2016,Ductile CoCrFeNiMox high entropy alloys strengthened by hard intermetallic phases
192,Co1 Cr1 Fe1 Mo0.304 Ni1,,CAST,other,,,8.4,,T,25.0,305.3,709.7,49.3,,,232,,,,10.1016/j.actamat.2016.06.063,2016,Ductile CoCrFeNiMox high entropy alloys strengthened by hard intermetallic phases
192,Co1 Cr1 Fe1 Mo0.304 Ni1,,WROUGHT,other,3.0,,8.4,,T,25.0,815.5,1186.5,18.9,,,232,,,,10.1016/j.actamat.2016.06.063,2016,Ductile CoCrFeNiMox high entropy alloys strengthened by hard intermetallic phases
192,Co1 Cr1 Fe1 Mo0.304 Ni1,,WROUGHT,other,3.1,,8.4,,T,25.0,646.7,1042.0,32.5,,,232,,,,10.1016/j.actamat.2016.06.063,2016,Ductile CoCrFeNiMox high entropy alloys strengthened by hard intermetallic phases
192,Co1 Cr1 Fe1 Mo0.304 Ni1,,WROUGHT,other,1.6,,8.4,,T,25.0,683.7,1066.6,30.4,,,232,,,,10.1016/j.actamat.2016.06.063,2016,Ductile CoCrFeNiMox high entropy alloys strengthened by hard intermetallic phases
172,Co1 Cr1 Fe1 Mn1 Ni1,FCC,WROUGHT,FCC,13.0,,8.1,,T,25.0,243.0,558.0,50.0,,,219,,,,10.1117/1.JEI.26.4.043022,2017,Toward privacy-preserving JPEG image retrieval
172,C0.02 Co1 Cr1 Fe1 Mn1 Ni1,,WROUGHT,other,8.0,,8.0,,T,25.0,446.0,723.0,15.0,,,,,,,10.1117/1.JEI.26.4.043022,2017,Toward privacy-preserving JPEG image retrieval
172,Co1 Cr1 Fe1 Mn1 Ni1,FCC,WROUGHT,FCC,7.0,,8.1,,T,25.0,249.0,621.0,41.0,,,219,,,,10.1117/1.JEI.26.4.043022,2017,Toward privacy-preserving JPEG image retrieval