IDENTIFIER: Reference ID,FORMULA,PROPERTY: Microstructure,PROPERTY: Processing method,PROPERTY: BCC/FCC/other,PROPERTY: grain size ($\mu$m),PROPERTY: Exp. Density (g/cm$^3$),PROPERTY: Computed Density (g/cm$^3$),PROPERTY: HV,PROPERTY: Type of test,PROPERTY: Test temperature ($^\circ$C),PROPERTY: YS (MPa),PROPERTY: UTS (MPa),PROPERTY: Elongation (%),PROPERTY: Elongation plastic (%),PROPERTY: Exp. Young modulus (GPa),PROPERTY: Computed Young modulus (GPa),PROPERTY: O content (wppm),PROPERTY: N content (wppm),PROPERTY: C content (wppm),REFERENCE: doi,REFERENCE: year,REFERENCE: title
138,Al0.5 Co1 Cr1 Fe1 Mn1 Ni1,,CAST,other,,,7.6,553.0,C,25.0,1932.0,,,3.8,,206,,,,10.1016/j.jallcom.2018.10.168,2019,Microstructure and mechanical properties of FeCoCrNiMnAlx high-entropy alloys prepared by mechanical alloying and hot-pressed sintering
138,Al0.7 Co1 Cr1 Fe1 Mn1 Ni1,,CAST,other,0.2,,7.4,622.0,C,25.0,2230.0,,,1.69,,201,,,,10.1016/j.jallcom.2018.10.168,2019,Microstructure and mechanical properties of FeCoCrNiMnAlx high-entropy alloys prepared by mechanical alloying and hot-pressed sintering
138,Al1 Co1 Cr1 Fe1 Mn1 Ni1,,CAST,other,,,7.2,684.0,C,25.0,,,,0,,194,,,,10.1016/j.jallcom.2018.10.168,2019,Microstructure and mechanical properties of FeCoCrNiMnAlx high-entropy alloys prepared by mechanical alloying and hot-pressed sintering
139,Co1 Cr1 Fe1 Ni1,FCC,WROUGHT,FCC,,,8.2,,T,20.0,446.0,664.0,63.0,,189.0,225,,,,10.1007/s40843-018-9373-y,2018,Excellent ductility and serration feature of metastable CoCrFeNi high-entropy alloy at extremely low temperatures
139,Co1 Cr1 Fe1 Ni1,FCC,WROUGHT,FCC,,,8.2,,T,-73.0,488.0,790.0,72.0,,194.0,225,,,,10.1007/s40843-018-9373-y,2018,Excellent ductility and serration feature of metastable CoCrFeNi high-entropy alloy at extremely low temperatures
139,Co1 Cr1 Fe1 Ni1,FCC,WROUGHT,FCC,,,8.2,,T,-196.0,590.0,1070.0,78.0,,204.0,225,,,,10.1007/s40843-018-9373-y,2018,Excellent ductility and serration feature of metastable CoCrFeNi high-entropy alloy at extremely low temperatures
139,Co1 Cr1 Fe1 Ni1,FCC,WROUGHT,FCC,,,8.2,,T,-223.0,,1152.0,68.6,,,225,,,,10.1007/s40843-018-9373-y,2018,Excellent ductility and serration feature of metastable CoCrFeNi high-entropy alloy at extremely low temperatures
139,Co1 Cr1 Fe1 Ni1,FCC,WROUGHT,FCC,,,8.2,,T,-253.0,,1240.0,62.0,,,225,,,,10.1007/s40843-018-9373-y,2018,Excellent ductility and serration feature of metastable CoCrFeNi high-entropy alloy at extremely low temperatures
139,Co1 Cr1 Fe1 Ni1,FCC,WROUGHT,FCC,,,8.2,,T,-268.8,680.0,1251.0,61.6,,221.0,225,,,,10.1007/s40843-018-9373-y,2018,Excellent ductility and serration feature of metastable CoCrFeNi high-entropy alloy at extremely low temperatures
140,Co1 Cr1 Fe1 Ni1,FCC,CAST,FCC,,,8.2,94.7,,,,,,,,225,,,,10.1016/j.matdes.2019.107698,2019,"Microstructural evolution, electrochemical and corrosion properties of Al CoCrFeNiTi  high entropy alloys"
140,Al0.3 Co1 Cr1 Fe1 Ni1,FCC,CAST,FCC,,,7.8,117.0,,,,,,,,214,,,,10.1016/j.matdes.2019.107698,2019,"Microstructural evolution, electrochemical and corrosion properties of Al CoCrFeNiTi  high entropy alloys"
140,Al0.6 Co1 Cr1 Fe1 Ni1,,CAST,other,,,7.5,228.0,,,,,,,,205,,,,10.1016/j.matdes.2019.107698,2019,"Microstructural evolution, electrochemical and corrosion properties of Al CoCrFeNiTi  high entropy alloys"
140,Al0.9 Co1 Cr1 Fe1 Ni1,,CAST,other,,,7.2,511.0,,,,,,,,196,,,,10.1016/j.matdes.2019.107698,2019,"Microstructural evolution, electrochemical and corrosion properties of Al CoCrFeNiTi  high entropy alloys"
140,Al0.9 Co1 Cr1 Fe1 Ni1 Ti0.5,,CAST,other,,,6.9,623.0,,,,,,,,189,,,,10.1016/j.matdes.2019.107698,2019,"Microstructural evolution, electrochemical and corrosion properties of Al CoCrFeNiTi  high entropy alloys"
141,Co1 Cr1 Fe1 Mn1 Ni1,FCC,CAST,FCC,,,8.1,,C,25.0,216.0,,,,,219,,,,10.1016/j.jmst.2018.10.009,2019,Strengthening FCC-CoCrFeMnNi high entropy alloys by Mo addition
141,Co1 Cr1 Fe1 Mn1 Mo0.042 Ni1,FCC,CAST,FCC,,,8.1,,C,25.0,225.0,,,,,220,,,,10.1016/j.jmst.2018.10.009,2019,Strengthening FCC-CoCrFeMnNi high entropy alloys by Mo addition
141,Co1 Cr1 Fe1 Mn1 Mo0.087 Ni1,,CAST,other,,,8.1,,C,25.0,330.0,,,,,221,,,,10.1016/j.jmst.2018.10.009,2019,Strengthening FCC-CoCrFeMnNi high entropy alloys by Mo addition
141,Co1 Cr1 Fe1 Mn1 Mo0.136 Ni1,,CAST,other,,,8.1,,C,25.0,560.0,,,,,222,,,,10.1016/j.jmst.2018.10.009,2019,Strengthening FCC-CoCrFeMnNi high entropy alloys by Mo addition
141,Co1 Cr1 Fe1 Mn1 Mo0.19 Ni1,,CAST,other,,,8.1,,C,25.0,765.0,,,,,223,,,,10.1016/j.jmst.2018.10.009,2019,Strengthening FCC-CoCrFeMnNi high entropy alloys by Mo addition
143,Al0.3 Co1 Cr1 Fe1 Ni1,,WROUGHT,other,,,7.8,,T,25.0,143.0,400.0,65.0,,,214,,,,10.1016/j.scriptamat.2018.10.023,2019,Tensile yield strength of a single bulk Al0.3CoCrFeNi high entropy alloy can be tuned from 160 MPa to 1800 MPa
143,Al0.3 Co1 Cr1 Fe1 Ni1,,WROUGHT,other,,,7.8,,T,25.0,471.0,850.0,45.0,,,214,,,,10.1016/j.scriptamat.2018.10.023,2019,Tensile yield strength of a single bulk Al0.3CoCrFeNi high entropy alloy can be tuned from 160 MPa to 1800 MPa
143,Al0.3 Co1 Cr1 Fe1 Ni1,,WROUGHT,other,,,7.8,,T,25.0,841.0,1050.0,35.0,,,214,,,,10.1016/j.scriptamat.2018.10.023,2019,Tensile yield strength of a single bulk Al0.3CoCrFeNi high entropy alloy can be tuned from 160 MPa to 1800 MPa
143,Al0.3 Co1 Cr1 Fe1 Ni1,,WROUGHT,other,,,7.8,,T,25.0,161.0,1650.0,7.0,,,214,,,,10.1016/j.scriptamat.2018.10.023,2019,Tensile yield strength of a single bulk Al0.3CoCrFeNi high entropy alloy can be tuned from 160 MPa to 1800 MPa
143,Al0.3 Co1 Cr1 Fe1 Ni1,,WROUGHT,other,,,7.8,,T,25.0,187.0,1850.0,5.0,,,214,,,,10.1016/j.scriptamat.2018.10.023,2019,Tensile yield strength of a single bulk Al0.3CoCrFeNi high entropy alloy can be tuned from 160 MPa to 1800 MPa
144,Al1 Co1 Cr1 Ni1,,CAST,other,,,6.9,1183.0,C,25.0,1750.0,,16.7,,,190,,,,10.1016/j.jallcom.2018.11.057,2019,Chemical evolution-induced strengthening on AlCoCrNi dual-phase high-entropy alloy with high specific strength
145,Co1 Cr1 Fe1 Mn1 Ni1,FCC,WROUGHT,FCC,7.9,,8.1,,T,25.0,378.7,700.1,54.0,,,219,,,,10.1016/j.msea.2019.01.050,2019,Effects of carbon on the microstructures and mechanical properties of FeCoCrNiMn high entropy alloys
145,C0.5 Co1 Cr1 Fe1 Mn1 Ni1,FCC,WROUGHT,FCC,4.7,,7.5,,T,25.0,520.9,791.4,40.3,,,,,,36380.0,10.1016/j.msea.2019.01.050,2019,Effects of carbon on the microstructures and mechanical properties of FeCoCrNiMn high entropy alloys
145,C1 Co1 Cr1 Fe1 Mn1 Ni1,FCC,WROUGHT,FCC,3.5,,7.1,,T,25.0,643.8,887.6,31.9,,,,,,30300.0,10.1016/j.msea.2019.01.050,2019,Effects of carbon on the microstructures and mechanical properties of FeCoCrNiMn high entropy alloys
146,Co1 Cr0.588 Fe0.176 Mo0.176 Ni1,FCC,WROUGHT,FCC,,,8.6,,T,25.0,,,8.0,,,227,,,,10.1016/j.ijplas.2018.10.005,2019,Strength and ductility of CrFeCoNiMo alloy with hierarchical microstructures
146,Co1 Cr0.588 Fe0.176 Mo0.176 Ni1,FCC,WROUGHT,FCC,0.7,,8.6,,T,25.0,,,14.0,,,227,,,,10.1016/j.ijplas.2018.10.005,2019,Strength and ductility of CrFeCoNiMo alloy with hierarchical microstructures
146,Co1 Cr0.588 Fe0.176 Mo0.176 Ni1,FCC,WROUGHT,FCC,0.8,,8.6,,T,25.0,1100.0,1300.0,32.0,,,227,,,,10.1016/j.ijplas.2018.10.005,2019,Strength and ductility of CrFeCoNiMo alloy with hierarchical microstructures
146,Co1 Cr0.588 Fe0.176 Mo0.176 Ni1,FCC,WROUGHT,FCC,1.2,,8.6,,T,25.0,950.0,,36.0,,,227,,,,10.1016/j.ijplas.2018.10.005,2019,Strength and ductility of CrFeCoNiMo alloy with hierarchical microstructures
146,Co1 Cr0.588 Fe0.176 Mo0.176 Ni1,FCC,WROUGHT,FCC,3.2,,8.6,,T,25.0,649.0,,42.0,,,227,,,,10.1016/j.ijplas.2018.10.005,2019,Strength and ductility of CrFeCoNiMo alloy with hierarchical microstructures
146,Co1 Cr0.588 Fe0.176 Mo0.176 Ni1,FCC,WROUGHT,FCC,18.2,,8.6,,T,25.0,439.0,,63.0,,,227,,,,10.1016/j.ijplas.2018.10.005,2019,Strength and ductility of CrFeCoNiMo alloy with hierarchical microstructures
146,Co1 Cr0.588 Fe0.176 Mo0.176 Ni1,FCC,WROUGHT,FCC,94.1,,8.6,,T,25.0,309.0,,82.0,,,227,,,,10.1016/j.ijplas.2018.10.005,2019,Strength and ductility of CrFeCoNiMo alloy with hierarchical microstructures
147,Co1 Cr1 Fe1 Mn1 Ni1,FCC,WROUGHT,FCC,,,8.1,,T,25.0,386.2,666.3,57.5,,,219,,,,10.1016/j.jallcom.2018.08.115,2019,"Effects of (W, Cr) carbide on grain refinement and mechanical properties for CoCrFeMnNi high entropy alloys"
148,Cr1 Cu1 Fe1 Mn1 Ni1,,CAST,other,,,8.1,,T,25.0,628.0,950.0,14.5,,,204,,,,10.1016/j.matchemphys.2018.09.033,2019,Evaluation of the mechanical properties of the heat treated FeCrCuMnNi high entropy alloy
148,Cr1 Cu1 Fe1 Mn1 Ni1,,ANNEAL,other,,,8.1,,T,25.0,545.0,690.0,5.0,,,204,,,,10.1016/j.matchemphys.2018.09.033,2019,Evaluation of the mechanical properties of the heat treated FeCrCuMnNi high entropy alloy
148,Cr1 Cu1 Fe1 Mn1 Ni1,,ANNEAL,other,,,8.1,,T,25.0,534.0,682.0,5.2,,,204,,,,10.1016/j.matchemphys.2018.09.033,2019,Evaluation of the mechanical properties of the heat treated FeCrCuMnNi high entropy alloy
148,Cr1 Cu1 Fe1 Mn1 Ni1,,ANNEAL,other,,,8.1,,T,25.0,525.0,680.0,4.3,,,204,,,,10.1016/j.matchemphys.2018.09.033,2019,Evaluation of the mechanical properties of the heat treated FeCrCuMnNi high entropy alloy
148,Cr1 Cu1 Fe1 Mn1 Ni1,,ANNEAL,other,,,8.1,,T,25.0,517.0,677.0,4.6,,,204,,,,10.1016/j.matchemphys.2018.09.033,2019,Evaluation of the mechanical properties of the heat treated FeCrCuMnNi high entropy alloy
148,Cr1 Cu1 Fe1 Mn1 Ni1,,ANNEAL,other,,,8.1,,T,25.0,502.0,671.0,4.9,,,204,,,,10.1016/j.matchemphys.2018.09.033,2019,Evaluation of the mechanical properties of the heat treated FeCrCuMnNi high entropy alloy
149,Cr1 Mo1 Nb1 Ta1 V1 W1,,POWDER,other,0.54,,11.3,1072.0,C,25.0,,,,,,240,7946.0,,,10.1016/j.jallcom.2018.11.318,2019,A fine-grained NbMoTaWVCr refractory high-entropy alloy with ultra-high strength: Microstructural evolution and mechanical properties
149,Cr1 Mo1 Nb1 Ta1 V1 W1,,POWDER,other,1.24,,11.3,1010.0,C,25.0,3416.0,,5.3,,,240,7946.0,,,10.1016/j.jallcom.2018.11.318,2019,A fine-grained NbMoTaWVCr refractory high-entropy alloy with ultra-high strength: Microstructural evolution and mechanical properties
149,Cr1 Mo1 Nb1 Ta1 V1 W1,,POWDER,other,5.01,,11.3,991.3,C,25.0,3410.0,,2.0,,,240,7946.0,,,10.1016/j.jallcom.2018.11.318,2019,A fine-grained NbMoTaWVCr refractory high-entropy alloy with ultra-high strength: Microstructural evolution and mechanical properties
149,Cr1 Mo1 Nb1 Ta1 V1 W1,,POWDER,other,10.8,,11.3,988.3,C,25.0,3338.0,,1.9,,,240,7946.0,,,10.1016/j.jallcom.2018.11.318,2019,A fine-grained NbMoTaWVCr refractory high-entropy alloy with ultra-high strength: Microstructural evolution and mechanical properties
149,Mo1 Nb1 Ta1 V1 W1,,POWDER,other,,,12.2,1010.0,C,25.0,3416.0,,5.3,,,232,,,,10.1016/j.jallcom.2018.11.318,2019,A fine-grained NbMoTaWVCr refractory high-entropy alloy with ultra-high strength: Microstructural evolution and mechanical properties
149,Mo1 Nb1 Ta1 V1 W1,,POWDER,other,,,12.2,,C,25.0,2612.0,,8.8,,,232,,,,10.1016/j.jallcom.2018.11.318,2019,A fine-grained NbMoTaWVCr refractory high-entropy alloy with ultra-high strength: Microstructural evolution and mechanical properties
149,Mo1 Nb1 Ta1 V1 W1,,CAST,other,,,12.2,535.3,C,25.0,1246.0,,1.7,,,232,,,,10.1016/j.jallcom.2018.11.318,2019,A fine-grained NbMoTaWVCr refractory high-entropy alloy with ultra-high strength: Microstructural evolution and mechanical properties
149,Mo1 Nb1 Ta1 Ti1 W1,,CAST,other,,,11.9,498.73,C,25.0,1343.0,,14.1,,,229,,,,10.1016/j.jallcom.2018.11.318,2019,A fine-grained NbMoTaWVCr refractory high-entropy alloy with ultra-high strength: Microstructural evolution and mechanical properties
149,Mo1 Nb1 Ta1 Ti1 V1 W1,,CAST,other,,,10.9,510.3,C,25.0,1515.0,,10.6,,,213,,,,10.1016/j.jallcom.2018.11.318,2019,A fine-grained NbMoTaWVCr refractory high-entropy alloy with ultra-high strength: Microstructural evolution and mechanical properties
149,Cr1 Mo1 Nb1 Ta1 V1 W1,,CAST,other,,,11.3,704.6,C,25.0,,,,,,240,,,,10.1016/j.jallcom.2018.11.318,2019,A fine-grained NbMoTaWVCr refractory high-entropy alloy with ultra-high strength: Microstructural evolution and mechanical properties
149,Mo1 Nb1 Ta1 Ti1 Zr1,,CAST,other,,,9.3,499.6,C,25.0,1390.0,,6.0,,,161,,,,10.1016/j.jallcom.2018.11.318,2019,A fine-grained NbMoTaWVCr refractory high-entropy alloy with ultra-high strength: Microstructural evolution and mechanical properties
149,Cr1 Mo0.5 Nb1 Ta0.5 Ti1 Zr1,,CAST,other,,,8.0,539.2,C,25.0,1595.0,,5.0,,,165,,,,10.1016/j.jallcom.2018.11.318,2019,A fine-grained NbMoTaWVCr refractory high-entropy alloy with ultra-high strength: Microstructural evolution and mechanical properties
149,Al1 Nb1 Ti1 V1,,CAST,other,,,5.5,440.0,C,25.0,1020.0,,5.0,,,105,,,,10.1016/j.jallcom.2018.11.318,2019,A fine-grained NbMoTaWVCr refractory high-entropy alloy with ultra-high strength: Microstructural evolution and mechanical properties
149,Hf1 Mo1 Nb1 Ta1 Ti1 Zr1,,CAST,other,,,10.0,505.0,C,25.0,1512.0,,10.0,,,147,,,,10.1016/j.jallcom.2018.11.318,2019,A fine-grained NbMoTaWVCr refractory high-entropy alloy with ultra-high strength: Microstructural evolution and mechanical properties
150,Co1 Cr1 Cu1 Fe1 Ni1,,CAST,other,,,8.3,45.2,,,,,,,,206,,,,10.1016/j.vacuum.2018.12.009,2019,The effect of Al content on microstructures and comprehensive properties in AlxCoCrCuFeNi high entropy alloys
150,Al0.5 Co1 Cr1 Cu1 Fe1 Ni1,FCC,CAST,FCC,,,7.8,48.8,,,,,,,,193,,,,10.1016/j.vacuum.2018.12.009,2019,The effect of Al content on microstructures and comprehensive properties in AlxCoCrCuFeNi high entropy alloys
150,Al1 Co1 Cr1 Cu1 Fe1 Ni1,,CAST,other,,,7.4,73.8,,,,,,,,183,,,,10.1016/j.vacuum.2018.12.009,2019,The effect of Al content on microstructures and comprehensive properties in AlxCoCrCuFeNi high entropy alloys
150,Al1 Co0.667 Cr0.667 Cu0.667 Fe0.667 Ni0.667,,CAST,other,,,7.0,75.1,,,,,,,,174,,,,10.1016/j.vacuum.2018.12.009,2019,The effect of Al content on microstructures and comprehensive properties in AlxCoCrCuFeNi high entropy alloys
150,Al1 Co0.5 Cr0.5 Cu0.5 Fe0.5 Ni0.5,,CAST,other,,,6.7,77.5,,,,,,,,167,,,,10.1016/j.vacuum.2018.12.009,2019,The effect of Al content on microstructures and comprehensive properties in AlxCoCrCuFeNi high entropy alloys
151,Co1 Ni1 V1,,WROUGHT,other,2.0,,8.0,,T,25.0,991.0,1359.0,38.0,,,179,,,,10.1002/adma.201807142,2018,Ultrastrong Medium-Entropy Single-Phase Alloys Designed via Severe Lattice Distortion
151,Co1 Ni1 V1,,WROUGHT,other,5.6,,8.0,,T,25.0,767.0,1224.0,46.0,,,179,,,,10.1002/adma.201807142,2018,Ultrastrong Medium-Entropy Single-Phase Alloys Designed via Severe Lattice Distortion
151,Co1 Ni1 V1,,WROUGHT,other,18.7,,8.0,,T,25.0,602.0,1123.0,51.0,,,179,,,,10.1002/adma.201807142,2018,Ultrastrong Medium-Entropy Single-Phase Alloys Designed via Severe Lattice Distortion
151,Co1 Ni1 V1,,WROUGHT,other,27.8,,8.0,,T,25.0,517.0,1049.0,55.0,,,179,,,,10.1002/adma.201807142,2018,Ultrastrong Medium-Entropy Single-Phase Alloys Designed via Severe Lattice Distortion
151,Co1 Ni1 V1,,WROUGHT,other,122.2,,8.0,,T,25.0,461.0,886.0,58.0,,,179,,,,10.1002/adma.201807142,2018,Ultrastrong Medium-Entropy Single-Phase Alloys Designed via Severe Lattice Distortion
153,Al0.3 Co1 Cr1 Fe1 Ni1,,WROUGHT,other,,,7.8,,T,25.0,840.0,1039.0,32.0,,,214,,,,10.1016/j.actamat.2018.12.010,2019,Enhancing strength and strain hardenability via deformation twinning in fcc-based high entropy alloys reinforced with intermetallic compounds
153,Al0.3 Co1 Cr1 Fe1 Ni1,FCC,WROUGHT,FCC,,,7.8,,T,25.0,159.0,410.0,65.0,,,214,,,,10.1016/j.actamat.2018.12.010,2019,Enhancing strength and strain hardenability via deformation twinning in fcc-based high entropy alloys reinforced with intermetallic compounds
154,Al0.544 C0.001 Co0.69 Fe1 Ni0.69,,CAST,other,,,7.4,,C,25.0,1202.0,,32.6,,,,,,11067.0,10.1016/j.scriptamat.2018.09.008,2019,A novel high-entropy alloy with a dendrite-composite microstructure and remarkable compression performance
155,Hf1 Nb1 Ta1 Ti1 Zr1,BCC,WROUGHT,BCC,,,9.9,,,,,,,,,111,,,,10.1016/j.matchar.2018.07.015,2019,Body-centered cubic high-entropy alloys: From processing to underlying deformation mechanisms
156,Co0.5 Cr0.5 Fe1 Ni1,FCC,WROUGHT,FCC,14.9,,8.3,,T,25.0,214.0,612.0,77.3,,,218,,,,10.1080/21663831.2018.1553803,2018,Novel Co-rich high entropy alloys with superior tensile properties
156,Co0.875 Cr0.625 Fe1 Ni1,FCC,WROUGHT,FCC,11.6,,8.3,,T,25.0,241.0,721.0,96.2,,,220,,,,10.1080/21663831.2018.1553803,2018,Novel Co-rich high entropy alloys with superior tensile properties
156,Co1 Cr0.556 Fe0.667 Ni0.667,FCC,WROUGHT,FCC,10.5,,8.3,,T,25.0,299.0,841.0,76.1,,,221,,,,10.1080/21663831.2018.1553803,2018,Novel Co-rich high entropy alloys with superior tensile properties
156,Co1 Cr0.455 Fe0.364 Ni0.364,,WROUGHT,other,5.6,,8.4,,T,25.0,392.0,746.0,20.3,,,222,,,,10.1080/21663831.2018.1553803,2018,Novel Co-rich high entropy alloys with superior tensile properties
156,Co1 Cr0.385 Fe0.154 Ni0.154,,WROUGHT,other,6.2,,8.4,,T,25.0,482.0,857.0,13.3,,,224,,,,10.1080/21663831.2018.1553803,2018,Novel Co-rich high entropy alloys with superior tensile properties
157,Hf1 Nb1 Ti1 Zr1,BCC,WROUGHT,BCC,,,8.2,,,,,,,,69.7,92,,,,10.1016/j.intermet.2019.04.003,2019,Evaluating elastic properties of a body-centered cubic NbHfZrTi high-entropy alloy – A direct comparison between experiments and ab initio calculations
157,Hf1 Nb1 Ta1 Ti1 Zr1,,,other,,,9.9,,,,,,,,78.5,111,,,,10.1016/j.intermet.2019.04.003,2019,Evaluating elastic properties of a body-centered cubic NbHfZrTi high-entropy alloy – A direct comparison between experiments and ab initio calculations
157,Mo1 Nb1 Ta1 Ti1 W1,,,other,,,11.9,,,,,,,,156.0,229,,,,10.1016/j.intermet.2019.04.003,2019,Evaluating elastic properties of a body-centered cubic NbHfZrTi high-entropy alloy – A direct comparison between experiments and ab initio calculations
157,Mo1 Nb1 Ta1 Ti1 V1 W1,,,other,,,10.9,,,,,,,,164.0,213,,,,10.1016/j.intermet.2019.04.003,2019,Evaluating elastic properties of a body-centered cubic NbHfZrTi high-entropy alloy – A direct comparison between experiments and ab initio calculations
157,Co1 Cr1 Fe1 Mn1 Ni1,,,other,,,8.1,,,,,,,,201.6,219,,,,10.1016/j.intermet.2019.04.003,2019,Evaluating elastic properties of a body-centered cubic NbHfZrTi high-entropy alloy – A direct comparison between experiments and ab initio calculations
157,Co1 Cr1 Fe1 Mn1 Ni1,,,other,,,8.1,,,,,,,,202.0,219,,,,10.1016/j.intermet.2019.04.003,2019,Evaluating elastic properties of a body-centered cubic NbHfZrTi high-entropy alloy – A direct comparison between experiments and ab initio calculations
157,Co1 Cr1 Fe1 Mn1 Ni1,,,other,,,8.1,,,,,,,,202.2,219,,,,10.1016/j.intermet.2019.04.003,2019,Evaluating elastic properties of a body-centered cubic NbHfZrTi high-entropy alloy – A direct comparison between experiments and ab initio calculations
157,Co1 Cr1 Fe1 Ni1,,,other,,,8.2,,,,,,,,215.0,225,,,,10.1016/j.intermet.2019.04.003,2019,Evaluating elastic properties of a body-centered cubic NbHfZrTi high-entropy alloy – A direct comparison between experiments and ab initio calculations
157,Co1 Cr1 Fe1 Ni1,,,other,,,8.2,,,,,,,,204.0,225,,,,10.1016/j.intermet.2019.04.003,2019,Evaluating elastic properties of a body-centered cubic NbHfZrTi high-entropy alloy – A direct comparison between experiments and ab initio calculations
157,Co1 Fe1 Mn1 Ni1,,,other,,,8.3,,,,,,,,187.9,204,,,,10.1016/j.intermet.2019.04.003,2019,Evaluating elastic properties of a body-centered cubic NbHfZrTi high-entropy alloy – A direct comparison between experiments and ab initio calculations
157,Co1 Fe1 Mn1 Ni1,,,other,,,8.3,,,,,,,,195.0,204,,,,10.1016/j.intermet.2019.04.003,2019,Evaluating elastic properties of a body-centered cubic NbHfZrTi high-entropy alloy – A direct comparison between experiments and ab initio calculations
157,Co1 Fe1 Ni1,,,other,,,8.6,,,,,,,,162.0,207,,,,10.1016/j.intermet.2019.04.003,2019,Evaluating elastic properties of a body-centered cubic NbHfZrTi high-entropy alloy – A direct comparison between experiments and ab initio calculations