IDENTIFIER: Reference ID,FORMULA,PROPERTY: Microstructure,PROPERTY: Processing method,PROPERTY: grain size ($\mu$m),PROPERTY: ROM Density (g/cm$^3$),PROPERTY: Exp. Density (g/cm$^3$),PROPERTY: HV,PROPERTY: Type of test,PROPERTY: Test temperature ($^\circ$C),PROPERTY: YS (MPa),PROPERTY: UTS (MPa),PROPERTY: Elongation (%),PROPERTY: Elongation plastic (%),PROPERTY: Young modulus (GPa),PROPERTY: O content (wppm),PROPERTY: N content (wppm),PROPERTY: C content (wppm),REFERENCE: doi,REFERENCE: year
24,Al0.417 Co0.833 Cr0.833 Cu0.833 Fe0.833 Ni0.833 Ti1,FCC+BCC+Sec.,CAST,,6.9,,646.0,,25.0,,,,,,,,,10.2320/matertrans.47.1395,
24,Al0.357 Co0.714 Cr0.714 Cu0.714 Fe0.714 Ni0.714 Ti1,FCC+BCC+Sec.,CAST,,6.8,,664.0,,25.0,,,,,,,,,10.2320/matertrans.47.1395,
24,Al0.312 Co0.625 Cr0.625 Cu0.625 Fe0.625 Ni0.625 Ti1,FCC+BCC+Sec.,CAST,,6.7,,657.0,,25.0,,,,,,,,,10.2320/matertrans.47.1395,
24,Al0.278 Co0.556 Cr0.556 Cu0.556 Fe0.556 Ni0.556 Ti1,FCC+BCC+Sec.,CAST,,6.6,,667.0,,25.0,,,,,,,,,10.2320/matertrans.47.1395,
24,Al0.25 Co0.5 Cr0.5 Cu0.5 Fe0.5 Ni0.5 Ti1,FCC+BCC+Sec.,CAST,,6.5,,696.0,,25.0,,,,,,,,,10.2320/matertrans.47.1395,
25,Al0.5 Co1 Cr1 Cu1 Fe1 Ni1,FCC,CAST,,7.6,,215.0,,25.0,,,,,193.0,,,,10.1007/s11661-006-0081-3,
25,Al0.5 Co1 Cr1 Cu1 Fe1 Ni1 V0.2,FCC,CAST,,7.6,,204.0,,25.0,,,,,191.0,,,,10.1007/s11661-006-0081-3,
25,Al0.5 Co1 Cr1 Cu1 Fe1 Ni1 V0.4,FCC+BCC,CAST,,7.5,,231.0,,25.0,,,,,189.0,,,,10.1007/s11661-006-0081-3,
25,Al0.5 Co1 Cr1 Cu1 Fe1 Ni1 V0.6,FCC+BCC+Sec.,CAST,,7.5,,328.0,,25.0,,,,,,,,,10.1007/s11661-006-0081-3,
25,Al0.5 Co1 Cr1 Cu1 Fe1 Ni1 V0.8,FCC+BCC+Sec.,CAST,,7.4,,447.0,,25.0,,,,,,,,,10.1007/s11661-006-0081-3,
25,Al0.5 Co1 Cr1 Cu1 Fe1 Ni1 V1,FCC+BCC+Sec.,CAST,,7.4,,639.0,,25.0,,,,,,,,,10.1007/s11661-006-0081-3,
25,Al0.417 Co0.833 Cr0.833 Cu0.833 Fe0.833 Ni0.833 V1,BCC,CAST,,7.3,,579.0,,25.0,,,,,182.0,,,,10.1007/s11661-006-0081-3,
25,Al0.357 Co0.714 Cr0.714 Cu0.714 Fe0.714 Ni0.714 V1,BCC,CAST,,7.3,,577.0,,25.0,,,,,180.0,,,,10.1007/s11661-006-0081-3,
25,Al0.312 Co0.625 Cr0.625 Cu0.625 Fe0.625 Ni0.625 V1,BCC,CAST,,7.2,,594.0,,25.0,,,,,179.0,,,,10.1007/s11661-006-0081-3,
25,Al0.278 Co0.556 Cr0.556 Cu0.556 Fe0.556 Ni0.556 V1,BCC,CAST,,7.2,,597.0,,25.0,,,,,177.0,,,,10.1007/s11661-006-0081-3,
25,Al0.25 Co0.5 Cr0.5 Cu0.5 Fe0.5 Ni0.5 V1,BCC,CAST,,7.2,,587.0,,25.0,,,,,176.0,,,,10.1007/s11661-006-0081-3,
26,Al1 Co1 Cr1 Cu1 Fe1 Ni1,FCC+BCC,CAST,,7.1,,472.0,,25.0,,,,,184.0,,,,10.1016/j.msea.2012.07.003,2012
26,Al1 Co1 Cu1 Fe1 Nd1 Ni1,Other,CAST,,7.4,,578.0,,25.0,,,,,,,,,10.1016/j.msea.2012.07.003,2012
26,Al1 Co1 Cu1 Fe1 Ni1,FCC+BCC,CAST,,7.0,,536.0,,25.0,,,,,164.0,,,,10.1016/j.msea.2012.07.003,2012
26,Al1 Co1 Cu1 Fe1 Ni1 Si1,FCC+BCC,CAST,,5.9,,682.0,,25.0,,,,,145.0,,,,10.1016/j.msea.2012.07.003,2012
26,Al1 Co1 Cu1 Fe1 Ni1 Ti1,FCC+BCC,CAST,,6.5,,626.0,,25.0,,,,,156.0,,,,10.1016/j.msea.2012.07.003,2012
26,Al1 Co1 Cu1 Fe1 Ni1 Zr1,FCC+BCC+Sec.,CAST,,6.9,,472.0,,25.0,,,,,,,,,10.1016/j.msea.2012.07.003,2012
28,Al1 Co1 Cr1 Cu1 Fe1 Mn1 Ni1,FCC+BCC+Sec.,CAST,,7.1,,,C,25.0,1005.0,,15.0,,,,,,10.1016/j.msea.2008.08.025,2008
28,Al1 Co1 Cr1 Cu1 Fe1 Ni1,FCC+BCC,CAST,,7.1,,,C,25.0,1303.0,,24.0,,183.0,,,,10.1016/j.msea.2008.08.025,2008
28,Al1 Co1 Cr1 Cu1 Fe1 Ni1 Ti1,FCC+Sec.,CAST,,6.6,,,C,25.0,1234.0,,9.0,,174.0,,,,10.1016/j.msea.2008.08.025,2008
28,Al1 Co1 Cr1 Cu1 Fe1 Ni1 V1,FCC+BCC,CAST,,6.9,,,C,25.0,1469.0,,16.0,,175.0,,,,10.1016/j.msea.2008.08.025,2008
29,Al1 Co1 Cr1 Cu1 Ni1 Ti1,BCC,,,6.4,,,C,25.0,,1495.0,,8.0,36.0,,,,10.1016/j.matdes.2009.09.016,2009
29,Al1 Co1 Cr1 Cu1 Ni1 Ti1 Y1,Other,CAST,,5.8,,,C,25.0,,1192.0,,4.0,37.0,,,,10.1016/j.matdes.2009.09.016,2009
29,Al1 Co1 Cr1 Cu1 Ni1 Ti1 Y0.5,Other,CAST,,6.1,,,C,25.0,,1025.0,,3.0,36.0,,,,10.1016/j.matdes.2009.09.016,2009
29,Al1 Co1 Cr1 Cu1 Ni1 Ti1 Y0.8,Other,CAST,,5.9,,,C,25.0,,1325.0,,5.0,38.0,,,,10.1016/j.matdes.2009.09.016,2009
30,Co1 Cu1 Fe1 Ni1,FCC,CAST,,8.6,,,T,25.0,,480.0,,15.0,188.0,,,,10.1016/j.msea.2012.03.080,2012
30,Co1 Cu1 Fe1 Ni1 Sn0.02,FCC,CAST,,8.6,,,T,25.0,,548.0,,17.0,187.0,,,,10.1016/j.msea.2012.03.080,2012
30,Co1 Cu1 Fe1 Ni1 Sn0.04,FCC+Sec.,CAST,,8.6,,,T,25.0,,594.0,,18.0,,,,,10.1016/j.msea.2012.03.080,2012
30,Co1 Cu1 Fe1 Ni1 Sn0.05,FCC+Sec.,CAST,,8.6,,,T,25.0,,615.0,,20.0,,,,,10.1016/j.msea.2012.03.080,2012
30,Co1 Cu1 Fe1 Ni1 Sn0.07,FCC+Sec.,CAST,,8.6,,,T,25.0,,632.0,,19.0,,,,,10.1016/j.msea.2012.03.080,2012
30,Co1 Cu1 Fe1 Ni1 Sn0.1,FCC+Sec.,CAST,,8.6,,,T,25.0,,602.0,,5.0,,,,,10.1016/j.msea.2012.03.080,2012
30,Co1 Cu1 Fe1 Ni1 Sn0.2,FCC+Sec.,CAST,,8.5,,,T,25.0,,261.0,,2.0,,,,,10.1016/j.msea.2012.03.080,2012
30,Co1 Cu1 Fe1 Ni1 Sn0.5,FCC+Sec.,CAST,,8.3,,,,25.0,,,,,,,,,10.1016/j.msea.2012.03.080,2012
31,Co1 Cu1 Fe1 Mn1 Ni1,FCC,CAST,,8.4,,208.0,T,25.0,,478.0,,14.0,190.0,,,,10.1016/j.matdes.2012.08.019,2012
31,Co1 Cu1 Fe1 Mn1 Ni1 Sn0.03,FCC,CAST,,8.4,,192.0,T,25.0,,465.0,,18.0,,,,,10.1016/j.matdes.2012.08.019,2012
31,Co1 Cu1 Fe1 Mn1 Ni1 Sn0.05,FCC+Sec.,CAST,,8.4,,205.0,T,25.0,,475.0,,12.0,,,,,10.1016/j.matdes.2012.08.019,2012
31,Co1 Cu1 Fe1 Mn1 Ni1 Sn0.08,FCC+Sec.,CAST,,8.3,,219.0,T,25.0,,425.0,,7.0,,,,,10.1016/j.matdes.2012.08.019,2012
31,Co1 Cu1 Fe1 Mn1 Ni1 Sn0.1,FCC+Sec.,CAST,,8.3,,253.0,T,25.0,,470.0,,6.0,,,,,10.1016/j.matdes.2012.08.019,2012
31,Co1 Cu1 Fe1 Mn1 Ni1 Sn0.2,FCC+Sec.,CAST,,8.3,,319.0,T,25.0,,368.0,,2.0,,,,,10.1016/j.matdes.2012.08.019,2012
32,Al1 Cr1 Cu1 Fe1 Ni1,FCC+BCC,ANNEAL,,6.8,,495.0,,25.0,,,,,178.0,,,,10.1016/j.msea.2011.11.063,2011
32,Al1 Cr1 Cu1 Fe1 Ni0.6,FCC+BCC,ANNEAL,,6.6,,496.0,,25.0,,,,,176.0,,,,10.1016/j.msea.2011.11.063,2011
32,Al1 Cr1 Cu1 Fe1 Ni0.8,FCC+BCC,ANNEAL,,6.7,,486.0,,25.0,,,,,177.0,,,,10.1016/j.msea.2011.11.063,2011
32,Al0.833 Cr0.833 Cu0.833 Fe0.833 Ni1,FCC+BCC,ANNEAL,,6.8,,407.0,,25.0,,,,,179.0,,,,10.1016/j.msea.2011.11.063,2011
32,Al0.714 Cr0.714 Cu0.714 Fe0.714 Ni1,FCC+BCC,ANNEAL,,6.9,,367.0,,25.0,,,,,180.0,,,,10.1016/j.msea.2011.11.063,2011
32,Co1 Cr1 Cu1 Fe1 Ni1,FCC,,,8.3,,286.0,C,25.0,230.0,888.0,51.0,,56.0,,,,10.1016/j.msea.2011.11.063,2011
33,Al0.1 Cr0.5 Cu0.5 Fe0.5 Ni1,FCC,,,8.0,,,,25.0,,,,,199.0,,,,10.1063/1.3587228,
33,Al0.2 Cr0.5 Cu0.5 Fe0.5 Ni1,FCC,,,7.8,,,,25.0,,,,,194.0,,,,10.1063/1.3587228,
33,Al0.3 Cr0.5 Cu0.5 Fe0.5 Ni1,FCC,,,7.5,,,,25.0,,,,,190.0,,,,10.1063/1.3587228,
33,Al0.4 Cr0.5 Cu0.5 Fe0.5 Ni1,FCC,,,7.3,,,,25.0,,,,,186.0,,,,10.1063/1.3587228,
33,Al0.6 Cr0.5 Cu0.5 Fe0.5 Ni1,FCC+BCC,,,6.9,,,,25.0,,,,,178.0,,,,10.1063/1.3587228,
33,Al0.5 Cr0.5 Cu0.5 Fe0.5 Ni1,FCC+BCC,,,7.1,,,,25.0,,,,,182.0,,,,10.1063/1.3587228,
34,Al1 Cr1 Cu1 Fe1 Ni1 Ti1,BCC+Laves (C14)+Sec.,ANNEAL,,6.3,,,C,25.0,,1219.0,,,,,,,10.1016/j.jallcom.2011.02.108,2011
35,Al1 Cu0.889 Fe0.667 Ni0.889 Ti1,FCC,CAST,,5.9,,516.0,C,25.0,980.0,1326.0,,7.0,145.0,,,,10.1016/j.apsusc.2015.07.207,2015
35,Al1 Cu1 Fe1 Ni1 Ti1,FCC,CAST,,6.1,,516.0,C,25.0,1074.0,1617.0,,8.0,146.0,,,,10.1016/j.apsusc.2015.07.207,2015
35,Al1 Cu1 Ni1 Ti1,FCC,CAST,,5.7,,537.0,C,25.0,300.0,536.0,,0.85,108.0,,,,10.1016/j.apsusc.2015.07.207,2015
36,Al1 Cu0.062 Li0.062 Mg0.062 Zn0.062,FCC+Sec.,CAST,,2.9,,,C,25.0,488.0,879.0,17.0,,,,,,10.1007/s11837-015-1402-z,
36,Al1 Li0.062 Mg0.062 Sn0.062 Zn0.062,FCC+Sec.,CAST,,3.0,,,C,25.0,415.0,836.0,16.0,,,,,,10.1007/s11837-015-1402-z,
36,Al1 Cu0.2 Li0.5 Mg1 Zn0.5,Other,CAST,,2.7,,,,25.0,,,,,,,,,10.1007/s11837-015-1402-z,
36,Al1 Cu0.5 Li0.5 Mg1 Sn0.2,Other,CAST,,3.0,,,,25.0,,,,,,,,,10.1007/s11837-015-1402-z,
36,Al1 Li0.5 Mg1 Sn0.2 Zn0.5,FCC+Sec.,CAST,,2.9,,,C,25.0,546.0,546.0,,,,,,,10.1007/s11837-015-1402-z,
36,Al1 Li1 Mg1 Sn1 Zn1,FCC+HCP+Sec.,CAST,,3.9,,,C,25.0,600.0,615.0,1.0,,,,,,10.1007/s11837-015-1402-z,
38,Al0.667 Li0.667 Mg0.333 Sc0.667 Ti1,FCC+HCP,,,2.7,,591.0,,25.0,,,,,69.0,,,,10.1080/21663831.2014.985855,2014
39,Al0.214 Nb0.714 Ta0.571 Ti1 V0.143 Zr0.929,BCC,OTHER,180.0,7.7,,500.0,C,25.0,1965.0,2061.0,5.0,,110.0,,,,10.1007/s11837-014-1066-0,
39,Al0.214 Nb0.714 Ta0.571 Ti1 V0.143 Zr0.929,BCC,OTHER,180.0,7.8,,,C,25.0,1965.0,2061.0,5.0,,,,,,10.1007/s11837-014-1066-0,
39,Al0.214 Nb0.714 Ta0.571 Ti1 V0.143 Zr0.929,BCC,OTHER,180.0,7.8,,,C,800.0,678.0,693.0,50.0,,,,,,10.1007/s11837-014-1066-0,
39,Al0.214 Nb0.714 Ta0.571 Ti1 V0.143 Zr0.929,BCC,OTHER,180.0,7.8,,,C,1000.0,166.0,189.0,50.0,,,,,,10.1007/s11837-014-1066-0,
39,Al0.214 Nb0.714 Ta0.714 Ti1 Zr0.929,BCC,OTHER,200.0,8.1,,490.0,C,25.0,1965.0,2054.0,5.0,,113.0,,,,10.1007/s11837-014-1066-0,
39,Al0.214 Nb0.714 Ta0.714 Ti1 Zr0.929,BCC,OTHER,200.0,8.2,,,C,25.0,1965.0,2054.0,5.0,,,,,,10.1007/s11837-014-1066-0,
39,Al0.214 Nb0.714 Ta0.714 Ti1 Zr0.929,BCC,OTHER,200.0,8.2,,,C,800.0,362.0,397.0,50.0,,,,,,10.1007/s11837-014-1066-0,
39,Al0.214 Nb0.714 Ta0.714 Ti1 Zr0.929,BCC,OTHER,200.0,8.2,,,C,1000.0,236.0,247.0,50.0,,,,,,10.1007/s11837-014-1066-0,
39,Al0.4 Hf0.6 Nb1 Ta1 Ti1 Zr1,BCC,OTHER,140.0,9.1,,500.0,C,25.0,1841.0,2269.0,10.0,,110.0,,,,10.1007/s11837-014-1066-0,
39,Al0.4 Hf0.6 Nb1 Ta1 Ti1 Zr1,BCC,OTHER,140.0,9.0,,,C,25.0,1841.0,2269.0,10.0,,,,,,10.1007/s11837-014-1066-0,
39,Al0.4 Hf0.6 Nb1 Ta1 Ti1 Zr1,BCC,OTHER,140.0,9.0,,,C,800.0,796.0,834.0,50.0,,,,,,10.1007/s11837-014-1066-0,
39,Al0.4 Hf0.6 Nb1 Ta1 Ti1 Zr1,BCC,OTHER,140.0,9.0,,,C,1000.0,298.0,455.0,50.0,,,,,,10.1007/s11837-014-1066-0,
39,Al0.333 Nb0.667 Ta0.533 Ti1 V0.133 Zr0.667,BCC,OTHER,100.0,7.6,,530.0,C,25.0,2035.0,2105.0,5.0,,111.0,,,,10.1007/s11837-014-1066-0,
39,Al0.333 Nb0.667 Ta0.533 Ti1 V0.133 Zr0.667,BCC,OTHER,100.0,7.4,,,C,25.0,2035.0,2105.0,4.5,,,,,,10.1007/s11837-014-1066-0,
39,Al0.333 Nb0.667 Ta0.533 Ti1 V0.133 Zr0.667,BCC,OTHER,100.0,7.4,,,C,800.0,796.0,851.0,50.0,,,,,,10.1007/s11837-014-1066-0,
39,Al0.333 Nb0.667 Ta0.533 Ti1 V0.133 Zr0.667,BCC,OTHER,100.0,7.4,,,C,1000.0,220.0,225.0,50.0,,,,,,10.1007/s11837-014-1066-0,
39,Al1 Mo0.5 Nb1 Ta0.5 Ti1 Zr1,BCC+B2,OTHER,75.0,7.1,,591.0,C,25.0,2000.0,2368.0,10.0,,123.0,,,,10.1007/s11837-014-1066-0,
39,Al1 Mo0.5 Nb1 Ta0.5 Ti1 Zr1,BCC+B2,OTHER,75.0,7.4,,,C,25.0,2000.0,2368.0,10.0,,,,,,10.1007/s11837-014-1066-0,
39,Al1 Mo0.5 Nb1 Ta0.5 Ti1 Zr1,BCC+B2,OTHER,75.0,7.4,,,C,800.0,1597.0,1810.0,11.0,,,,,,10.1007/s11837-014-1066-0,
39,Al1 Mo0.5 Nb1 Ta0.5 Ti1 Zr1,BCC+B2,OTHER,75.0,7.4,,,C,1000.0,745.0,772.0,50.0,,,,,,10.1007/s11837-014-1066-0,
39,Al1 Mo0.5 Nb1 Ta0.5 Ti1 Zr1,BCC+B2,OTHER,75.0,7.4,,,C,1200.0,250.0,,50.0,,,,,,10.1007/s11837-014-1066-0,
39,Al0.667 Nb1 Ta0.333 Ti1 Zr0.333,BCC,OTHER,2000.0,6.8,,408.0,C,25.0,1280.0,1367.0,4.0,,106.0,,,,10.1007/s11837-014-1066-0,
39,Al0.667 Nb1 Ta0.333 Ti1 Zr0.333,BCC,OTHER,2000.0,6.9,,,C,25.0,1280.0,1367.0,3.5,,,,,,10.1007/s11837-014-1066-0,
39,Al0.667 Nb1 Ta0.333 Ti1 Zr0.333,BCC,OTHER,2000.0,6.9,,,C,800.0,728.0,1000.0,12.0,,,,,,10.1007/s11837-014-1066-0,
39,Al0.667 Nb1 Ta0.333 Ti1 Zr0.333,BCC,OTHER,2000.0,6.9,,,C,1000.0,403.0,415.0,50.0,,,,,,10.1007/s11837-014-1066-0,
40,Al0.3 Hf1 Nb1 Ta1 Ti1 Zr1,BCC,CAST,105.0,9.5,,353.0,C,25.0,1188.0,,50.0,,63.0,,,,10.1016/j.jallcom.2014.11.064,2014
40,Al0.5 Hf1 Nb1 Ta1 Ti1 Zr1,BCC,CAST,86.0,9.3,,396.0,C,25.0,1302.0,,46.0,,97.0,,,,10.1016/j.jallcom.2014.11.064,2014
40,Al0.75 Hf1 Nb1 Ta1 Ti1 Zr1,BCC,CAST,89.0,9.3,,427.0,C,25.0,1415.0,2050.0,30.0,,102.0,,,,10.1016/j.jallcom.2014.11.064,2014
40,Al1 Hf1 Nb1 Ta1 Ti1 Zr1,BCC,CAST,92.0,8.6,,441.0,C,25.0,1489.0,1900.0,21.0,,103.0,,,,10.1016/j.jallcom.2014.11.064,2014
40,Hf1 Nb1 Ta1 Ti1 Zr1,BCC,CAST,120.0,9.7,,295.0,C,25.0,1073.0,,50.0,,55.0,,,,10.1016/j.jallcom.2014.11.064,2014
41,Al0.25 Mo1 Nb1 Ti1 V1,BCC,CAST,,7.1,,460.0,C,25.0,1250.0,1500.0,13.0,,164.0,,,,10.3390/e16020870,
41,Al0.5 Mo1 Nb1 Ti1 V1,BCC,CAST,,6.8,,487.0,C,25.0,1625.0,1800.0,11.0,,158.0,,,,10.3390/e16020870,
41,Al0.75 Mo1 Nb1 Ti1 V1,BCC,CAST,,6.6,,517.0,C,25.0,1260.0,1300.0,8.0,,154.0,,,,10.3390/e16020870,
41,Al1 Mo1 Nb1 Ti1 V1,BCC,CAST,,6.4,,537.0,C,25.0,1375.0,1400.0,3.0,,150.0,,,,10.3390/e16020870,
41,Mo1 Nb1 Ti1 V1,BCC,CAST,,7.3,,441.0,C,25.0,1200.0,2050.0,26.0,,170.0,,,,10.3390/e16020870,
42,Al0.25 Nb1 Ta1 Ti1 V1,BCC,CAST,,8.8,,,C,25.0,1330.0,,,,92.0,,,,10.1016/j.proeng.2012.03.043,2012
42,Al0.5 Nb1 Ta1 Ti1 V1,BCC,CAST,,8.5,,,C,25.0,1014.0,,,,97.0,,,,10.1016/j.proeng.2012.03.043,2012
42,Al1 Nb1 Ta1 Ti1 V1,BCC,CAST,,7.9,,,C,25.0,993.0,,,,101.0,,,,10.1016/j.proeng.2012.03.043,2012
42,Nb1 Ta1 Ti1 V1,BCC,CAST,,9.2,,,C,25.0,1092.0,,,,106.0,,,,10.1016/j.proeng.2012.03.043,2012
43,Al1 Nb1 Ti1 V1,BCC,ANNEAL,350.0,5.5,,448.0,C,25.0,1020.0,1318.0,,5.0,105.0,,,,10.1016/j.matlet.2014.11.162,2014
43,Al1 Nb1 Ti1 V1,BCC,ANNEAL,,5.6,,,C,25.0,1020.0,,,5.0,,,,,10.1016/j.matlet.2014.11.162,2014
43,Al1 Nb1 Ti1 V1,BCC,ANNEAL,,5.6,,,C,600.0,810.0,1050.0,,12.0,,,,,10.1016/j.matlet.2014.11.162,2014
43,Al1 Nb1 Ti1 V1,BCC,ANNEAL,,5.6,,,C,800.0,685.0,,,50.0,,,,,10.1016/j.matlet.2014.11.162,2014
43,Al1 Nb1 Ti1 V1,BCC,ANNEAL,,5.6,,,C,1000.0,158.0,,,50.0,,,,,10.1016/j.matlet.2014.11.162,2014
44,Cr1 Mo0.5 Nb1 Ta0.5 Ti1 Zr1,BCC+BCC+Laves (C15),OTHER,,8.0,,540.0,C,25.0,1595.0,2046.0,5.0,,,,,,10.1016/j.msea.2011.09.033,2011
44,Cr1 Mo0.5 Nb1 Ta0.5 Ti1 Zr1,BCC+BCC+Laves (C15),OTHER,,8.2,,,C,25.0,1595.0,2046.0,5.0,,,,,,10.1016/j.msea.2011.09.033,2011
44,Cr1 Mo0.5 Nb1 Ta0.5 Ti1 Zr1,BCC+BCC+Laves (C15),OTHER,,8.2,,,C,800.0,983.0,1100.0,5.5,,,,,,10.1016/j.msea.2011.09.033,2011
44,Cr1 Mo0.5 Nb1 Ta0.5 Ti1 Zr1,BCC+BCC+Laves (C15),OTHER,,8.2,,,C,1000.0,546.0,630.0,50.0,,,,,,10.1016/j.msea.2011.09.033,2011
44,Cr1 Mo0.5 Nb1 Ta0.5 Ti1 Zr1,BCC+BCC+Laves (C15),OTHER,,8.2,,,C,1200.0,170.0,190.0,50.0,,,,,,10.1016/j.msea.2011.09.033,2011
45,Cr1 Nb1 Ti1 V1 Zr1,BCC+Sec.,OTHER,,6.6,,482.0,C,25.0,1298.0,,3.0,,,,,,10.1016/j.msea.2012.12.018,2012
45,Cr1 Nb1 Ti1 V1 Zr1,BCC+Sec.,OTHER,,6.6,,,C,25.0,1298.0,,3.0,,,,,,10.1016/j.msea.2012.12.018,2012
45,Cr1 Nb1 Ti1 V1 Zr1,BCC+Sec.,OTHER,,6.6,,,C,600.0,1230.0,,10.0,,,,,,10.1016/j.msea.2012.12.018,2012
45,Cr1 Nb1 Ti1 V1 Zr1,BCC+Sec.,OTHER,,6.6,,,C,800.0,615.0,,50.0,,,,,,10.1016/j.msea.2012.12.018,2012
45,Cr1 Nb1 Ti1 V1 Zr1,BCC+Sec.,OTHER,,6.6,,,C,1000.0,259.0,,50.0,,,,,,10.1016/j.msea.2012.12.018,2012
45,Cr1 Nb1 Ti1 Zr1,BCC+Sec.,OTHER,,6.6,,418.0,C,25.0,1260.0,,6.0,,,,,,10.1016/j.msea.2012.12.018,2012
45,Cr1 Nb1 Ti1 Zr1,BCC+Sec.,OTHER,,6.7,,,C,25.0,1260.0,,6.0,,,,,,10.1016/j.msea.2012.12.018,2012
45,Cr1 Nb1 Ti1 Zr1,BCC+Sec.,OTHER,,6.7,,,C,600.0,1035.0,,50.0,,,,,,10.1016/j.msea.2012.12.018,2012
45,Cr1 Nb1 Ti1 Zr1,BCC+Sec.,OTHER,,6.7,,,C,800.0,300.0,,50.0,,,,,,10.1016/j.msea.2012.12.018,2012
45,Cr1 Nb1 Ti1 Zr1,BCC+Sec.,OTHER,,6.7,,,C,1000.0,115.0,,50.0,,,,,,10.1016/j.msea.2012.12.018,2012
45,Nb0.5 Ti0.5 V1 Zr0.5,BCC,OTHER,550.0,6.4,,304.0,C,25.0,918.0,,50.0,,109.0,,,,10.1016/j.msea.2012.12.018,2012
45,Nb0.5 Ti0.5 V1 Zr0.5,BCC,OTHER,,6.3,,,C,25.0,918.0,,50.0,,,,,,10.1016/j.msea.2012.12.018,2012
45,Nb0.5 Ti0.5 V1 Zr0.5,BCC,OTHER,,6.3,,,C,600.0,571.0,,50.0,,,,,,10.1016/j.msea.2012.12.018,2012
45,Nb0.5 Ti0.5 V1 Zr0.5,BCC,OTHER,,6.3,,,C,800.0,240.0,,50.0,,,,,,10.1016/j.msea.2012.12.018,2012
45,Nb0.5 Ti0.5 V1 Zr0.5,BCC,OTHER,,6.3,,,C,1000.0,72.0,,50.0,,,,,,10.1016/j.msea.2012.12.018,2012
45,Nb1 Ti1 V1 Zr1,BCC,OTHER,550.0,6.5,,335.0,C,25.0,1105.0,,50.0,,104.0,,,,10.1016/j.msea.2012.12.018,2012
45,Nb1 Ti1 V1 Zr1,BCC,OTHER,,6.5,,,C,25.0,1105.0,,50.0,,,,,,10.1016/j.msea.2012.12.018,2012
45,Nb1 Ti1 V1 Zr1,BCC,OTHER,,6.5,,,C,600.0,834.0,,50.0,,,,,,10.1016/j.msea.2012.12.018,2012
45,Nb1 Ti1 V1 Zr1,BCC,OTHER,,6.5,,,C,800.0,187.0,,50.0,,,,,,10.1016/j.msea.2012.12.018,2012
45,Nb1 Ti1 V1 Zr1,BCC,OTHER,,6.5,,,C,1000.0,58.0,,50.0,,,,,,10.1016/j.msea.2012.12.018,2012
47,Hf0.5 Mo0.5 Nb1 Ti1 Zr1,BCC,CAST,,7.9,,,C,25.0,1176.0,1538.0,,,123.1,,,,10.1016/j.intermet.2015.09.011,2015
47,C0.1 Hf0.5 Mo0.5 Nb1 Ti1 Zr1,BCC+Sec.,CAST,,7.8,,,C,25.0,1183.0,2139.0,38.0,,,,,,10.1016/j.intermet.2015.09.011,2015
47,C0.3 Hf0.5 Mo0.5 Nb1 Ti1 Zr1,BCC+Sec.,CAST,,7.7,,,C,25.0,1201.0,1965.0,33.0,,,,,,10.1016/j.intermet.2015.09.011,2015
48,Hf1 Mo0.25 Nb1 Ta1 Ti1 Zr1,BCC,CAST,,9.9,,395.0,C,25.0,1112.0,,50.0,,96.0,,,,10.1016/j. matlet.2016.03.133,2016
48,Hf1 Mo0.5 Nb1 Ta1 Ti1 Zr1,BCC,CAST,,10.0,,480.0,C,25.0,1317.0,,50.0,,102.0,,,,10.1016/j. matlet.2016.03.133,2016
48,Hf1 Mo0.75 Nb1 Ta1 Ti1 Zr1,BCC,CAST,,10.0,,492.0,C,25.0,1373.0,,50.0,,109.0,,,,10.1016/j. matlet.2016.03.133,2016
48,Hf1 Mo1 Nb1 Ta1 Ti1 Zr1,BCC,CAST,,10.0,,505.0,C,25.0,1512.0,1800.0,12.0,,115.0,,,,10.1016/j. matlet.2016.03.133,2016
48,Hf1 Nb1 Ta1 Ti1 Zr1,BCC,CAST,,9.9,,335.0,C,25.0,1015.0,,50.0,,85.0,,,,10.1016/j. matlet.2016.03.133,2016
49,Hf1 Mo1 Nb1 Ta1 Ti1 Zr1,BCC,CAST,,10.0,,505.0,C,25.0,1512.0,,12.0,,147.0,,,,10.1016/j.intermet.2015.03.013,2015
49,Hf1 Mo1 Nb1 Ta1 Ti1 Zr1,BCC,CAST,,10.0,,,C,800.0,1007.0,,23.0,,,,,,10.1016/j.intermet.2015.03.013,2015
49,Hf1 Mo1 Nb1 Ta1 Ti1 Zr1,BCC,CAST,,10.0,,,C,1000.0,814.0,,30.0,,,,,,10.1016/j.intermet.2015.03.013,2015
49,Hf1 Mo1 Nb1 Ta1 Ti1 Zr1,BCC,CAST,,10.0,,,C,1200.0,556.0,,30.0,,,,,,10.1016/j.intermet.2015.03.013,2015
49,Hf1 Mo1 Ta1 Ti1 Zr1,BCC,CAST,,10.2,,542.0,C,25.0,1600.0,1743.0,4.0,,155.0,,,,10.1016/j.intermet.2015.03.013,2015
49,Hf1 Mo1 Ta1 Ti1 Zr1,BCC,CAST,,10.2,,,C,800.0,1045.0,1446.0,19.0,,,,,,10.1016/j.intermet.2015.03.013,2015
49,Hf1 Mo1 Ta1 Ti1 Zr1,BCC,CAST,,10.2,,,C,1000.0,855.0,,30.0,,,,,,10.1016/j.intermet.2015.03.013,2015
49,Hf1 Mo1 Ta1 Ti1 Zr1,BCC,CAST,,10.2,,,C,1200.0,404.0,,30.0,,,,,,10.1016/j.intermet.2015.03.013,2015
50,Hf1 Mo1 Nb1 Ti1 Zr1,BCC,ANNEAL,,8.7,,,C,25.0,1575.0,1640.0,9.0,,,,,,10.1016/j.matdes.2015.05.019,2015
50,Hf1 Mo1 Nb1 Ti1 Zr1,BCC,ANNEAL,,8.7,,,C,800.0,825.0,1095.0,50.0,,,,,,10.1016/j.matdes.2015.05.019,2015
50,Hf1 Mo1 Nb1 Ti1 Zr1,BCC,ANNEAL,,8.7,,,C,1000.0,635.0,654.0,50.0,,,,,,10.1016/j.matdes.2015.05.019,2015
50,Hf1 Mo1 Nb1 Ti1 Zr1,BCC,ANNEAL,,8.7,,,C,1200.0,187.0,194.0,50.0,,,,,,10.1016/j.matdes.2015.05.019,2015
50,Hf1 Mo1 Nb1 Ti1 Zr1,BCC,CAST,,8.7,,,C,25.0,1803.0,1719.0,10.0,,139.0,,,,10.1016/j.matdes.2015.05.019,2015
51,Hf1 Nb1 Si0.5 Ti1 V1,BCC+Sec.,CAST,,8.6,,,C,800.0,875.0,,50.0,,,,,,10.1016/j.matlet.2016.03.092,2016
51,Hf1 Nb1 Si0.5 Ti1 V1,BCC+Sec.,CAST,,8.6,,,C,1000.0,240.0,,50.0,,,,,,10.1016/j.matlet.2016.03.092,2016
51,Hf1 Nb1 Si0.5 Ti1 V1,BCC+Sec.,CAST,,8.6,,490.0,C,25.0,1399.0,1608.0,11.0,,,,,,10.1016/j.matlet.2016.03.092,2016
52,Hf0.333 Nb0.333 Ta0.333 Ti1 Zr0.667,BCC,CAST,,8.1,,301.0,T,25.0,903.0,990.0,19.0,,107.0,,,,10.1063/1.4966659,
53,Hf1 Nb1 Ta1 Ti1 Zr1,BCC,OTHER,,9.9,,,C,25.0,929.0,,50.0,,,,,,10.1007/s10853-012-6260-2,
53,Hf1 Nb1 Ta1 Ti1 Zr1,BCC,OTHER,,9.9,,,C,400.0,790.0,,50.0,,,,,,10.1007/s10853-012-6260-2,
53,Hf1 Nb1 Ta1 Ti1 Zr1,BCC,OTHER,,9.9,,,C,600.0,675.0,,50.0,,,,,,10.1007/s10853-012-6260-2,
53,Hf1 Nb1 Ta1 Ti1 Zr1,BCC,OTHER,,9.9,,,C,800.0,535.0,,50.0,,,,,,10.1007/s10853-012-6260-2,
53,Hf1 Nb1 Ta1 Ti1 Zr1,BCC,OTHER,,9.9,,,C,1000.0,295.0,,50.0,,,,,,10.1007/s10853-012-6260-2,
53,Hf1 Nb1 Ta1 Ti1 Zr1,BCC,OTHER,,9.9,,,C,1200.0,92.0,,50.0,,,,,,10.1007/s10853-012-6260-2,
55,Hf1 Nb1 Ti1 Zr1,BCC,CAST,,8.4,,,T,25.0,879.0,969.0,,14.9,92.0,,,,10.1016/j.matlet.2014.05.134,2014
56,Mo1 Nb1 Ta1 V1,BCC,ANNEAL,200.0,10.7,,504.0,C,25.0,1525.0,2400.0,21.0,,187.0,,,,10.3390/e18050189,
57,Mo1 Nb1 Ta1 V1 W1,BCC,CAST,80.0,12.4,,536.0,C,25.0,1246.0,1270.0,2.0,,232.0,,,,10.1016/j.intermet.2011.01.004,2011
57,Mo1 Nb1 Ta1 V1 W1,BCC,CAST,,12.4,,,C,600.0,862.0,,13.0,,,,,,10.1016/j.intermet.2011.01.004,2011
57,Mo1 Nb1 Ta1 V1 W1,BCC,CAST,,12.4,,,C,800.0,846.0,,17.0,,,,,,10.1016/j.intermet.2011.01.004,2011
57,Mo1 Nb1 Ta1 V1 W1,BCC,CAST,,12.4,,,C,1000.0,842.0,,19.0,,,,,,10.1016/j.intermet.2011.01.004,2011
57,Mo1 Nb1 Ta1 V1 W1,BCC,CAST,,12.4,,,C,1200.0,735.0,,7.5,,,,,,10.1016/j.intermet.2011.01.004,2011
57,Mo1 Nb1 Ta1 V1 W1,BCC,CAST,,12.4,,,C,1400.0,656.0,,40.0,,,,,,10.1016/j.intermet.2011.01.004,2011
57,Mo1 Nb1 Ta1 V1 W1,BCC,CAST,,12.4,,,C,1600.0,477.0,,40.0,,,,,,10.1016/j.intermet.2011.01.004,2011
57,Mo1 Nb1 Ta1 W1,BCC,CAST,200.0,13.7,,454.0,C,25.0,1058.0,1211.0,2.0,,258.0,,,,10.1016/j.intermet.2011.01.004,2011
57,Mo1 Nb1 Ta1 W1,BCC,CAST,,13.8,,,C,600.0,561.0,,40.0,,,,,,10.1016/j.intermet.2011.01.004,2011
57,Mo1 Nb1 Ta1 W1,BCC,CAST,,13.8,,,C,800.0,552.0,,40.0,,,,,,10.1016/j.intermet.2011.01.004,2011
57,Mo1 Nb1 Ta1 W1,BCC,CAST,,13.8,,,C,1000.0,548.0,,40.0,,,,,,10.1016/j.intermet.2011.01.004,2011
57,Mo1 Nb1 Ta1 W1,BCC,CAST,,13.8,,,C,1200.0,506.0,,40.0,,,,,,10.1016/j.intermet.2011.01.004,2011