IDENTIFIER: Reference ID,FORMULA,PROPERTY: Microstructure,PROPERTY: Processing method,PROPERTY: BCC/FCC/other,PROPERTY: grain size ($\mu$m),PROPERTY: Exp. Density (g/cm$^3$),PROPERTY: Calculated Density (g/cm$^3$),PROPERTY: HV,PROPERTY: Type of test,PROPERTY: Test temperature ($^\circ$C),PROPERTY: YS (MPa),PROPERTY: UTS (MPa),PROPERTY: Elongation (%),PROPERTY: Elongation plastic (%),PROPERTY: Exp. Young modulus (GPa),PROPERTY: Calculated Young modulus (GPa),PROPERTY: O content (wppm),PROPERTY: N content (wppm),PROPERTY: C content (wppm),REFERENCE: doi,REFERENCE: year,REFERENCE: title
59,Mo1 Nb1 Ti1 V0.75 Zr1,BCC,CAST,BCC,,,7.2,,C,25.0,1708.0,3929.0,29.0,,,141,,,,10.1007/s11837-012-0366-5,2012,Alloy Design and Properties Optimization of High-Entropy Alloys
59,Mo1 Nb1 Ti1 V1 Zr1,BCC,CAST,BCC,,,7.1,,C,25.0,1786.0,3828.0,26.0,,,141,,,,10.1007/s11837-012-0366-5,2012,Alloy Design and Properties Optimization of High-Entropy Alloys
59,Mo0.667 Nb0.667 Ti0.667 V1 Zr0.667,BCC,CAST,BCC,,,7.1,,C,25.0,1735.0,3300.0,20.0,,,140,,,,10.1007/s11837-012-0366-5,2012,Alloy Design and Properties Optimization of High-Entropy Alloys
59,Mo0.5 Nb0.5 Ti0.5 V1 Zr0.5,BCC,CAST,BCC,,,7.0,,C,25.0,1538.0,3176.0,23.0,,,139,,,,10.1007/s11837-012-0366-5,2012,Alloy Design and Properties Optimization of High-Entropy Alloys
59,Mo0.333 Nb0.333 Ti0.333 V1 Zr0.333,BCC,CAST,BCC,,,6.9,,C,25.0,1418.0,2508.0,24.0,,,138,,,,10.1007/s11837-012-0366-5,2012,Alloy Design and Properties Optimization of High-Entropy Alloys
59,Mo1 Nb1 Ti1 Zr1,BCC,CAST,BCC,,,7.3,,C,25.0,1592.0,3450.0,34.0,,,143,,,,10.1007/s11837-012-0366-5,2012,Alloy Design and Properties Optimization of High-Entropy Alloys
60,Co1 Fe1 Mo0.2 Ni1 V1,FCC+Sec.,CAST,other,,,8.0,267.0,,25.0,,,,,,,,,,10.1016/j.jallcom.2015.07.185,2015,Effect of Mo and Ni elements on microstructure evolution and mechanical properties of the CoFeNixVMoy high entropy alloys
60,Co1 Fe1 Mo0.4 Ni1 V1,FCC+Sec.,CAST,other,,,8.1,402.0,,25.0,,,,,,,,,,10.1016/j.jallcom.2015.07.185,2015,Effect of Mo and Ni elements on microstructure evolution and mechanical properties of the CoFeNixVMoy high entropy alloys
60,Co1 Fe1 Mo0.6 Ni1 V1,FCC+Sec.,CAST,other,,,8.2,557.0,,25.0,,,,,,,,,,10.1016/j.jallcom.2015.07.185,2015,Effect of Mo and Ni elements on microstructure evolution and mechanical properties of the CoFeNixVMoy high entropy alloys
60,Co1 Fe1 Mo0.8 Ni1 V1,FCC+Sec.,CAST,other,,,8.3,606.0,,25.0,,,,,,,,,,10.1016/j.jallcom.2015.07.185,2015,Effect of Mo and Ni elements on microstructure evolution and mechanical properties of the CoFeNixVMoy high entropy alloys
60,Co0.833 Fe0.833 Mo0.833 Ni1 V0.833,FCC+Sec.,CAST,other,,,8.4,602.0,,25.0,,,,,,,,,,10.1016/j.jallcom.2015.07.185,2015,Effect of Mo and Ni elements on microstructure evolution and mechanical properties of the CoFeNixVMoy high entropy alloys
60,Co0.714 Fe0.714 Mo0.714 Ni1 V0.714,FCC+Sec.,CAST,other,,,8.5,538.0,,25.0,,,,,,,,,,10.1016/j.jallcom.2015.07.185,2015,Effect of Mo and Ni elements on microstructure evolution and mechanical properties of the CoFeNixVMoy high entropy alloys
60,Co0.625 Fe0.625 Mo0.625 Ni1 V0.625,FCC+Sec.,CAST,other,,,8.5,520.0,,25.0,,,,,,,,,,10.1016/j.jallcom.2015.07.185,2015,Effect of Mo and Ni elements on microstructure evolution and mechanical properties of the CoFeNixVMoy high entropy alloys
60,Co0.556 Fe0.556 Mo0.556 Ni1 V0.556,FCC+Sec.,CAST,other,,,8.5,510.0,,25.0,,,,,,,,,,10.1016/j.jallcom.2015.07.185,2015,Effect of Mo and Ni elements on microstructure evolution and mechanical properties of the CoFeNixVMoy high entropy alloys
60,Co0.5 Fe0.5 Mo0.5 Ni1 V0.5,FCC+Sec.,CAST,other,,,8.5,382.0,,25.0,,,,,,,,,,10.1016/j.jallcom.2015.07.185,2015,Effect of Mo and Ni elements on microstructure evolution and mechanical properties of the CoFeNixVMoy high entropy alloys
60,Co1 Fe1 Mo1 Ni1 V1,FCC+Sec.,CAST,other,,,8.4,625.0,,25.0,,,,,,,,,,10.1016/j.jallcom.2015.07.185,2015,Effect of Mo and Ni elements on microstructure evolution and mechanical properties of the CoFeNixVMoy high entropy alloys
60,Co1 Fe1 Ni1 V1,FCC,CAST,FCC,,,7.8,238.0,,25.0,,,,,,184,,,,10.1016/j.jallcom.2015.07.185,2015,Effect of Mo and Ni elements on microstructure evolution and mechanical properties of the CoFeNixVMoy high entropy alloys
61,Al0.125 Co1 Cr1 Cu1 Fe1 Mn1 Ni1 Ti1 V1,FCC+BCC,CAST,other,,,7.2,,C,25.0,1862.0,2431.0,1.0,,164.0,,,,,10.1016/j.msea.2006.11.049,2007,Microstructure and compressive properties of multicomponent Alx(TiVCrMnFeCoNiCu)100−x high-entropy alloys
61,Al0.25 Co1 Cr1 Cu1 Fe1 Mn1 Ni1 Ti1 V1,BCC,CAST,BCC,,,7.1,,C,25.0,1465.0,2016.0,2.0,,190.0,174,,,,10.1016/j.msea.2006.11.049,2007,Microstructure and compressive properties of multicomponent Alx(TiVCrMnFeCoNiCu)100−x high-entropy alloys
61,Al0.667 Co1 Cr1 Cu1 Fe1 Mn1 Ni1 Ti1 V1,BCC+Sec.,CAST,other,,,6.8,,C,25.0,1461.0,1461.0,1.0,,163.0,,,,,10.1016/j.msea.2006.11.049,2007,Microstructure and compressive properties of multicomponent Alx(TiVCrMnFeCoNiCu)100−x high-entropy alloys
61,Co1 Cr1 Cu1 Fe1 Mn1 Ni1 Ti1 V1,FCC+BCC+Sec.,CAST,other,,,7.3,,C,25.0,1312.0,1312.0,1.0,,74.0,,,,,10.1016/j.msea.2006.11.049,2007,Microstructure and compressive properties of multicomponent Alx(TiVCrMnFeCoNiCu)100−x high-entropy alloys
62,Cu1 Mn1 Ni1 Zn0.333,FCC,CAST,FCC,,,8.3,147.0,C,25.0,215.0,,60.0,,,167,,,,10.1016/j.jallcom.2015.07.285,2015,"High entropy brasses and bronzes – Microstructure, phase evolution and properties"
62,Cu1 Mn1 Ni1 Zn0.25,FCC,CAST,FCC,,,8.3,109.0,C,25.0,140.0,,65.0,,,169,,,,10.1016/j.jallcom.2015.07.285,2015,"High entropy brasses and bronzes – Microstructure, phase evolution and properties"
62,Al0.111 Cu1 Mn1 Ni1,FCC+Sec.,CAST,other,,,8.1,241.0,C,25.0,515.0,,40.0,,,,,,,10.1016/j.jallcom.2015.07.285,2015,"High entropy brasses and bronzes – Microstructure, phase evolution and properties"
62,Cu1 Mn1 Ni1 Sn0.111,FCC+Sec.,CAST,other,,,8.3,318.0,C,25.0,630.0,,20.0,,,,,,,10.1016/j.jallcom.2015.07.285,2015,"High entropy brasses and bronzes – Microstructure, phase evolution and properties"
62,Al0.053 Cu1 Mn1 Ni1,FCC,CAST,FCC,,,8.3,166.0,C,25.0,330.0,,45.0,,,173,,,,10.1016/j.jallcom.2015.07.285,2015,"High entropy brasses and bronzes – Microstructure, phase evolution and properties"
62,Cu1 Mn1 Ni1 Sn0.053,FCC+Sec.,CAST,other,,,8.4,205.0,C,25.0,380.0,,63.0,,,,,,,10.1016/j.jallcom.2015.07.285,2015,"High entropy brasses and bronzes – Microstructure, phase evolution and properties"
64,Al0.5 Co1 Cr1 Cu1 Fe1 Ni1,FCC,CAST,FCC,,,7.6,,C,1000.0,150.0,,,,,189,,,,10.1007/s11661-005-0218-9,2005,Mechanical performance of the Al x CoCrCuFeNi high-entropy alloy system with multiprincipal elements
64,Al0.5 Co1 Cr1 Cu1 Fe1 Ni1,FCC,CAST,FCC,,,7.6,,C,25.0,388.0,,,,,189,,,,10.1007/s11661-005-0218-9,2005,Mechanical performance of the Al x CoCrCuFeNi high-entropy alloy system with multiprincipal elements
64,Al0.5 Co1 Cr1 Cu1 Fe1 Ni1,FCC,CAST,FCC,,,7.6,,C,300.0,411.0,,,,,189,,,,10.1007/s11661-005-0218-9,2005,Mechanical performance of the Al x CoCrCuFeNi high-entropy alloy system with multiprincipal elements
64,Al0.5 Co1 Cr1 Cu1 Fe1 Ni1,FCC,CAST,FCC,,,7.6,,C,500.0,421.0,,,,,189,,,,10.1007/s11661-005-0218-9,2005,Mechanical performance of the Al x CoCrCuFeNi high-entropy alloy system with multiprincipal elements
64,Al0.5 Co1 Cr1 Cu1 Fe1 Ni1,FCC,CAST,FCC,,,7.6,,C,700.0,426.0,,,,,189,,,,10.1007/s11661-005-0218-9,2005,Mechanical performance of the Al x CoCrCuFeNi high-entropy alloy system with multiprincipal elements
64,Al0.5 Co1 Cr1 Cu1 Fe1 Ni1,FCC,CAST,FCC,,,7.6,,C,900.0,230.0,,,,,189,,,,10.1007/s11661-005-0218-9,2005,Mechanical performance of the Al x CoCrCuFeNi high-entropy alloy system with multiprincipal elements
64,Al0.5 Co1 Cr1 Cu1 Fe1 Ni1,FCC,CAST,FCC,,,7.6,,C,1100.0,80.0,,,,,189,,,,10.1007/s11661-005-0218-9,2005,Mechanical performance of the Al x CoCrCuFeNi high-entropy alloy system with multiprincipal elements
64,Al1 Co0.5 Cr0.5 Cu0.5 Fe0.5 Ni0.5,BCC,CAST,BCC,,,6.3,,C,1000.0,116.0,,,,,156,,,,10.1007/s11661-005-0218-9,2005,Mechanical performance of the Al x CoCrCuFeNi high-entropy alloy system with multiprincipal elements
64,Al1 Co0.5 Cr0.5 Cu0.5 Fe0.5 Ni0.5,BCC,CAST,BCC,,,6.3,,C,1100.0,79.0,,,,,156,,,,10.1007/s11661-005-0218-9,2005,Mechanical performance of the Al x CoCrCuFeNi high-entropy alloy system with multiprincipal elements
64,Al1 Co0.5 Cr0.5 Cu0.5 Fe0.5 Ni0.5,BCC,CAST,BCC,,,6.3,,C,25.0,1620.0,,,,,156,,,,10.1007/s11661-005-0218-9,2005,Mechanical performance of the Al x CoCrCuFeNi high-entropy alloy system with multiprincipal elements
64,Al1 Co0.5 Cr0.5 Cu0.5 Fe0.5 Ni0.5,BCC,CAST,BCC,,,6.3,,C,600.0,805.0,,,,,156,,,,10.1007/s11661-005-0218-9,2005,Mechanical performance of the Al x CoCrCuFeNi high-entropy alloy system with multiprincipal elements
64,Al1 Co0.5 Cr0.5 Cu0.5 Fe0.5 Ni0.5,BCC,CAST,BCC,,,6.3,,C,500.0,1120.0,,,,,156,,,,10.1007/s11661-005-0218-9,2005,Mechanical performance of the Al x CoCrCuFeNi high-entropy alloy system with multiprincipal elements
64,Al1 Co0.5 Cr0.5 Cu0.5 Fe0.5 Ni0.5,BCC,CAST,BCC,,,6.3,,C,700.0,567.0,,,,,156,,,,10.1007/s11661-005-0218-9,2005,Mechanical performance of the Al x CoCrCuFeNi high-entropy alloy system with multiprincipal elements
64,Al1 Co0.5 Cr0.5 Cu0.5 Fe0.5 Ni0.5,BCC,CAST,BCC,,,6.3,,C,900.0,214.0,,,,,156,,,,10.1007/s11661-005-0218-9,2005,Mechanical performance of the Al x CoCrCuFeNi high-entropy alloy system with multiprincipal elements
64,Al1 Co0.5 Cr0.5 Cu0.5 Fe0.5 Ni0.5,BCC,CAST,BCC,,,6.3,,C,800.0,302.0,,,,,156,,,,10.1007/s11661-005-0218-9,2005,Mechanical performance of the Al x CoCrCuFeNi high-entropy alloy system with multiprincipal elements
64,Al1 Co1 Cr1 Cu1 Fe1 Ni1,FCC+BCC,CAST,other,,,7.1,,C,1000.0,47.0,,,,,,,,,10.1007/s11661-005-0218-9,2005,Mechanical performance of the Al x CoCrCuFeNi high-entropy alloy system with multiprincipal elements
64,Al1 Co1 Cr1 Cu1 Fe1 Ni1,FCC+BCC,CAST,other,,,7.1,,C,25.0,948.0,,,,,,,,,10.1007/s11661-005-0218-9,2005,Mechanical performance of the Al x CoCrCuFeNi high-entropy alloy system with multiprincipal elements
64,Al1 Co1 Cr1 Cu1 Fe1 Ni1,FCC+BCC,CAST,other,,,7.1,,C,600.0,561.0,,,,,,,,,10.1007/s11661-005-0218-9,2005,Mechanical performance of the Al x CoCrCuFeNi high-entropy alloy system with multiprincipal elements
64,Al1 Co1 Cr1 Cu1 Fe1 Ni1,FCC+BCC,CAST,other,,,7.1,,C,700.0,307.0,,,,,,,,,10.1007/s11661-005-0218-9,2005,Mechanical performance of the Al x CoCrCuFeNi high-entropy alloy system with multiprincipal elements
64,Al1 Co1 Cr1 Cu1 Fe1 Ni1,FCC+BCC,CAST,other,,,7.1,,C,800.0,172.0,,,,,,,,,10.1007/s11661-005-0218-9,2005,Mechanical performance of the Al x CoCrCuFeNi high-entropy alloy system with multiprincipal elements
64,Al1 Co1 Cr1 Cu1 Fe1 Ni1,FCC+BCC,CAST,other,,,7.1,,C,900.0,98.0,,,,,,,,,10.1007/s11661-005-0218-9,2005,Mechanical performance of the Al x CoCrCuFeNi high-entropy alloy system with multiprincipal elements
65,Al1 Cr1 Mo1 Nb1 Ti1,BCC,CAST,BCC,,,6.6,,C,25.0,,,,,,170,92.0,,,10.1016/j.jallcom.2015.11.050,2016,Microstructure and mechanical properties at elevated temperatures of a new Al-containing refractory high-entropy alloy Nb-Mo-Cr-Ti-Al
65,Al1 Cr1 Mo1 Nb1 Ti1,BCC,CAST,BCC,,,6.6,,C,400.0,1080.0,1100.0,2.0,,,170,92.0,,,10.1016/j.jallcom.2015.11.050,2016,Microstructure and mechanical properties at elevated temperatures of a new Al-containing refractory high-entropy alloy Nb-Mo-Cr-Ti-Al
65,Al1 Cr1 Mo1 Nb1 Ti1,BCC,CAST,BCC,,,6.6,,C,600.0,1060.0,1170.0,3.0,,,170,92.0,,,10.1016/j.jallcom.2015.11.050,2016,Microstructure and mechanical properties at elevated temperatures of a new Al-containing refractory high-entropy alloy Nb-Mo-Cr-Ti-Al
65,Al1 Cr1 Mo1 Nb1 Ti1,BCC,CAST,BCC,,,6.6,,C,800.0,860.0,1000.0,2.0,,,170,92.0,,,10.1016/j.jallcom.2015.11.050,2016,Microstructure and mechanical properties at elevated temperatures of a new Al-containing refractory high-entropy alloy Nb-Mo-Cr-Ti-Al
65,Al1 Cr1 Mo1 Nb1 Ti1,BCC,CAST,BCC,,,6.6,,C,1000.0,594.0,630.0,15.0,,,170,92.0,,,10.1016/j.jallcom.2015.11.050,2016,Microstructure and mechanical properties at elevated temperatures of a new Al-containing refractory high-entropy alloy Nb-Mo-Cr-Ti-Al
65,Al1 Cr1 Mo1 Nb1 Ti1,BCC,CAST,BCC,,,6.6,,C,1200.0,105.0,116.0,24.0,,,170,92.0,,,10.1016/j.jallcom.2015.11.050,2016,Microstructure and mechanical properties at elevated temperatures of a new Al-containing refractory high-entropy alloy Nb-Mo-Cr-Ti-Al
67,Al1 Cr1 Mo1 Nb1 Ti1,BCC,ANNEAL,BCC,,,6.6,,C,600.0,930.0,,,,,170,92.0,,,10.1007/s11661-017-4386-1,2017,Contribution of Lattice Distortion to Solid Solution Strengthening in a Series of Refractory High Entropy Alloys
67,Al1 Cr1 Mo1 Nb1 Ti1,BCC,ANNEAL,BCC,,,6.6,,C,800.0,875.0,,,,,170,,,,10.1007/s11661-017-4386-1,2017,Contribution of Lattice Distortion to Solid Solution Strengthening in a Series of Refractory High Entropy Alloys
67,Al1 Cr1 Mo1 Nb1 Ti1,BCC,ANNEAL,BCC,,,6.6,,C,1000.0,550.0,,,,,170,,,,10.1007/s11661-017-4386-1,2017,Contribution of Lattice Distortion to Solid Solution Strengthening in a Series of Refractory High Entropy Alloys
67,Al1 Cr1 Mo1 Nb1 Ti1,BCC,ANNEAL,BCC,,,6.6,,C,1200.0,150.0,,,,,170,,,,10.1007/s11661-017-4386-1,2017,Contribution of Lattice Distortion to Solid Solution Strengthening in a Series of Refractory High Entropy Alloys
67,Al1 Cr1 Mo1 Ti1,BCC,ANNEAL,BCC,,,6.0,,C,400.0,1070.0,,,,,189,,,,10.1007/s11661-017-4386-1,2017,Contribution of Lattice Distortion to Solid Solution Strengthening in a Series of Refractory High Entropy Alloys
67,Al1 Cr1 Mo1 Ti1,BCC,ANNEAL,BCC,,,6.0,,C,600.0,1020.0,,,,,189,,,,10.1007/s11661-017-4386-1,2017,Contribution of Lattice Distortion to Solid Solution Strengthening in a Series of Refractory High Entropy Alloys
67,Al1 Cr1 Mo1 Ti1,BCC,ANNEAL,BCC,,,6.0,,C,800.0,875.0,,,,,189,,,,10.1007/s11661-017-4386-1,2017,Contribution of Lattice Distortion to Solid Solution Strengthening in a Series of Refractory High Entropy Alloys
67,Al1 Cr1 Mo1 Ti1,BCC,ANNEAL,BCC,,,6.0,,C,1000.0,375.0,,,,,189,,,,10.1007/s11661-017-4386-1,2017,Contribution of Lattice Distortion to Solid Solution Strengthening in a Series of Refractory High Entropy Alloys
67,Al1 Cr1 Mo1 Ti1,BCC,ANNEAL,BCC,,,6.0,,C,1200.0,100.0,,,,,189,,,,10.1007/s11661-017-4386-1,2017,Contribution of Lattice Distortion to Solid Solution Strengthening in a Series of Refractory High Entropy Alloys
67,Al1 Mo1 Nb1 Ti1,BCC,ANNEAL,BCC,,,6.5,,C,600.0,520.0,,,,,151,,,,10.1007/s11661-017-4386-1,2017,Contribution of Lattice Distortion to Solid Solution Strengthening in a Series of Refractory High Entropy Alloys
67,Al1 Mo1 Nb1 Ti1,BCC,ANNEAL,BCC,,,6.5,,C,800.0,500.0,,,,,151,,,,10.1007/s11661-017-4386-1,2017,Contribution of Lattice Distortion to Solid Solution Strengthening in a Series of Refractory High Entropy Alloys
67,Al1 Mo1 Nb1 Ti1,BCC,ANNEAL,BCC,,,6.5,,C,1000.0,540.0,,,,,151,,,,10.1007/s11661-017-4386-1,2017,Contribution of Lattice Distortion to Solid Solution Strengthening in a Series of Refractory High Entropy Alloys
67,Al1 Mo1 Nb1 Ti1,BCC,ANNEAL,BCC,,,6.5,,C,1200.0,200.0,,,,,151,,,,10.1007/s11661-017-4386-1,2017,Contribution of Lattice Distortion to Solid Solution Strengthening in a Series of Refractory High Entropy Alloys
68,Al1 Nb1 Ti1 V1,B2,ANNEAL,other,,,5.5,,C,600.0,780.0,1005.0,,,,,,,,10.1016/j.msea.2017.08.019,2017,Structure and mechanical properties of B2 ordered refractory AlNbTiVZr x (x = 0–1.5) high-entropy alloys
68,Al1 Nb1 Ti1 V1,B2,ANNEAL,other,,,5.5,,C,800.0,560.0,700.0,,,,,,,,10.1016/j.msea.2017.08.019,2017,Structure and mechanical properties of B2 ordered refractory AlNbTiVZr x (x = 0–1.5) high-entropy alloys
68,Al1 Nb1 Ti1 V1,B2,ANNEAL,other,,,5.5,,C,25.0,1000.0,1280.0,,,,,,,,10.1016/j.msea.2017.08.019,2017,Structure and mechanical properties of B2 ordered refractory AlNbTiVZr x (x = 0–1.5) high-entropy alloys
68,Al1 Nb1 Ti1 V1 Zr1,B2+Laves+Sec.,ANNEAL,other,,,5.8,,C,600.0,1155.0,1385.0,,,,,,,,10.1016/j.msea.2017.08.019,2017,Structure and mechanical properties of B2 ordered refractory AlNbTiVZr x (x = 0–1.5) high-entropy alloys
68,Al1 Nb1 Ti1 V1 Zr1,B2+Laves+Sec.,ANNEAL,other,,,5.8,,C,800.0,550.0,600.0,,,,,,,,10.1016/j.msea.2017.08.019,2017,Structure and mechanical properties of B2 ordered refractory AlNbTiVZr x (x = 0–1.5) high-entropy alloys
68,Al1 Nb1 Ti1 V1 Zr1,B2+Laves+Sec.,ANNEAL,other,,,5.8,,C,25.0,1500.0,1675.0,,,,,,,,10.1016/j.msea.2017.08.019,2017,Structure and mechanical properties of B2 ordered refractory AlNbTiVZr x (x = 0–1.5) high-entropy alloys
68,Al1 Nb1 Ti1 V1 Zr0.1,B2+Sec.,ANNEAL,other,,,5.5,,C,600.0,975.0,1085.0,,,,,,,,10.1016/j.msea.2017.08.019,2017,Structure and mechanical properties of B2 ordered refractory AlNbTiVZr x (x = 0–1.5) high-entropy alloys
68,Al1 Nb1 Ti1 V1 Zr0.1,B2+Sec.,ANNEAL,other,,,5.5,,C,800.0,865.0,920.0,,,,,,,,10.1016/j.msea.2017.08.019,2017,Structure and mechanical properties of B2 ordered refractory AlNbTiVZr x (x = 0–1.5) high-entropy alloys
68,Al1 Nb1 Ti1 V1 Zr0.1,B2+Sec.,ANNEAL,other,,,5.5,,C,25.0,1290.0,1395.0,,,,,,,,10.1016/j.msea.2017.08.019,2017,Structure and mechanical properties of B2 ordered refractory AlNbTiVZr x (x = 0–1.5) high-entropy alloys
68,Al1 Nb1 Ti1 V1 Zr0.25,B2+Sec.,ANNEAL,other,,,5.6,,C,600.0,1065.0,1260.0,,,,,,,,10.1016/j.msea.2017.08.019,2017,Structure and mechanical properties of B2 ordered refractory AlNbTiVZr x (x = 0–1.5) high-entropy alloys
68,Al1 Nb1 Ti1 V1 Zr0.25,B2+Sec.,ANNEAL,other,,,5.6,,C,800.0,855.0,865.0,,,,,,,,10.1016/j.msea.2017.08.019,2017,Structure and mechanical properties of B2 ordered refractory AlNbTiVZr x (x = 0–1.5) high-entropy alloys
68,Al1 Nb1 Ti1 V1 Zr0.25,B2+Sec.,ANNEAL,other,,,5.6,,C,25.0,1360.0,1480.0,,,,,,,,10.1016/j.msea.2017.08.019,2017,Structure and mechanical properties of B2 ordered refractory AlNbTiVZr x (x = 0–1.5) high-entropy alloys
68,Al1 Nb1 Ti1 V1 Zr0.5,B2+Laves+Sec.,ANNEAL,other,,,5.6,,C,600.0,1135.0,1425.0,,,,,,,,10.1016/j.msea.2017.08.019,2017,Structure and mechanical properties of B2 ordered refractory AlNbTiVZr x (x = 0–1.5) high-entropy alloys
68,Al1 Nb1 Ti1 V1 Zr0.5,B2+Laves+Sec.,ANNEAL,other,,,5.6,,C,800.0,675.0,740.0,,,,,,,,10.1016/j.msea.2017.08.019,2017,Structure and mechanical properties of B2 ordered refractory AlNbTiVZr x (x = 0–1.5) high-entropy alloys
68,Al1 Nb1 Ti1 V1 Zr0.5,B2+Laves+Sec.,ANNEAL,other,,,5.6,,C,25.0,1485.0,,,,,,,,,10.1016/j.msea.2017.08.019,2017,Structure and mechanical properties of B2 ordered refractory AlNbTiVZr x (x = 0–1.5) high-entropy alloys
68,Al0.667 Nb0.667 Ti0.667 V0.667 Zr1,B2+Laves+Sec.,ANNEAL,other,,,5.8,,C,600.0,1195.0,1195.0,,,,,,,,10.1016/j.msea.2017.08.019,2017,Structure and mechanical properties of B2 ordered refractory AlNbTiVZr x (x = 0–1.5) high-entropy alloys
68,Al0.667 Nb0.667 Ti0.667 V0.667 Zr1,B2+Laves+Sec.,ANNEAL,other,,,5.8,,C,800.0,180.0,395.0,,,,,,,,10.1016/j.msea.2017.08.019,2017,Structure and mechanical properties of B2 ordered refractory AlNbTiVZr x (x = 0–1.5) high-entropy alloys
68,Al0.667 Nb0.667 Ti0.667 V0.667 Zr1,B2+Laves+Sec.,ANNEAL,other,,,5.8,,C,25.0,1535.0,1550.0,,,,,,,,10.1016/j.msea.2017.08.019,2017,Structure and mechanical properties of B2 ordered refractory AlNbTiVZr x (x = 0–1.5) high-entropy alloys
69,Co1 Cr1 Mo1 Nb1,BCC+Laves,CAST,other,,,8.8,,C,25.0,,1419.6,,,,,,,,10.1007/s11665-017-2799-z,2017,Microstructure and Mechanical Properties of a Refractory CoCrMoNbTi High-Entropy Alloy
69,Co1 Cr1 Mo1 Nb1 Ti1,BCC+Laves,CAST,other,,,7.8,,C,25.0,,1096.8,,,,,,,,10.1007/s11665-017-2799-z,2017,Microstructure and Mechanical Properties of a Refractory CoCrMoNbTi High-Entropy Alloy
69,Co1 Cr1 Mo1 Nb1 Ti0.2,BCC+Laves,CAST,other,,,8.5,,C,25.0,,1905.6,,,,,,,,10.1007/s11665-017-2799-z,2017,Microstructure and Mechanical Properties of a Refractory CoCrMoNbTi High-Entropy Alloy
69,Co1 Cr1 Mo1 Nb1 Ti0.4,BCC,CAST,BCC,,,8.3,,C,25.0,,1771.3,,,,212,,,,10.1007/s11665-017-2799-z,2017,Microstructure and Mechanical Properties of a Refractory CoCrMoNbTi High-Entropy Alloy
69,Co1 Cr1 Mo1 Nb1 Ti0.5,BCC+Laves,CAST,other,,,8.2,,C,25.0,,1609.2,,,,,,,,10.1007/s11665-017-2799-z,2017,Microstructure and Mechanical Properties of a Refractory CoCrMoNbTi High-Entropy Alloy