IDENTIFIER: Reference ID,FORMULA,PROPERTY: Microstructure,PROPERTY: Processing method,PROPERTY: BCC/FCC/other,PROPERTY: grain size ($\mu$m),PROPERTY: Exp. Density (g/cm$^3$),PROPERTY: Computed Density (g/cm$^3$),PROPERTY: HV,PROPERTY: Type of test,PROPERTY: Test temperature ($^\circ$C),PROPERTY: YS (MPa),PROPERTY: UTS (MPa),PROPERTY: Elongation (%),PROPERTY: Elongation plastic (%),PROPERTY: Exp. Young modulus (GPa),PROPERTY: Computed Young modulus (GPa),PROPERTY: O content (wppm),PROPERTY: N content (wppm),PROPERTY: C content (wppm),REFERENCE: doi,REFERENCE: year,REFERENCE: title
79,Hf1 Nb1 Si0.5 Ti1 V1 Zr1,BCC+Laves+Sec.,ANNEAL,other,,,7.3,,C,25.0,1483.0,1611.0,9.5,,,94,,,,10.4028/www.scientific.net/MSF.849.76,2016,Microstructure and Mechanical Properties of a New Refractory HfNbSisub0.5/subTiVZr High Entropy Alloy
79,Hf1 Nb1 Si0.5 Ti1 V1 Zr1,BCC+Laves+Sec.,CAST,other,,,7.3,,C,600.0,920.0,1252.0,50.0,,,94,,,,10.4028/www.scientific.net/MSF.849.76,2016,Microstructure and Mechanical Properties of a New Refractory HfNbSisub0.5/subTiVZr High Entropy Alloy
79,Hf1 Nb1 Si0.5 Ti1 V1 Zr1,BCC+Laves+Sec.,CAST,other,,,7.3,,C,800.0,371.0,427.0,50.0,,,94,,,,10.4028/www.scientific.net/MSF.849.76,2016,Microstructure and Mechanical Properties of a New Refractory HfNbSisub0.5/subTiVZr High Entropy Alloy
79,Hf1 Nb1 Si0.5 Ti1 V1 Zr1,BCC+Laves+Sec.,CAST,other,,,7.3,,C,25.0,1540.0,1643.0,16.8,,,94,,,,10.4028/www.scientific.net/MSF.849.76,2016,Microstructure and Mechanical Properties of a New Refractory HfNbSisub0.5/subTiVZr High Entropy Alloy
80,Hf1 Nb1 Ta1 Ti1 Zr1,BCC,OTHER,BCC,0.05,,9.9,420.0,T,25.0,1900.0,,7.9,,,111,,,,10.1016/j.actamat.2017.09.035,2018,
80,Hf1 Nb1 Ta1 Ti1 Zr1,BCC+HCP,OTHER,other,0.05,,9.9,530.0,T,25.0,1520.0,,1.7,,,111,,,,10.1016/j.actamat.2017.09.035,2018,
80,Hf1 Nb1 Ta1 Ti1 Zr1,BCC+BCC+HCP,OTHER,other,0.1,,9.9,340.0,T,25.0,795.0,,5.0,,,111,,,,10.1016/j.actamat.2017.09.035,2018,
80,Hf1 Nb1 Ta1 Ti1 Zr1,BCC,WROUGHT,BCC,100.0,,9.9,309.0,T,25.0,830.0,840.0,9.2,,,111,,,,10.1016/j.actamat.2017.09.035,2018,
81,Hf1 Nb1 Ta1 Ti1 Zr1,BCC,WROUGHT,BCC,,,9.9,366.0,T,25.0,1202.0,1295.0,4.7,,,111,,,,10.1016/j.jallcom.2015.07.209,2015,Microstructure and properties of a refractory high-entropy alloy after cold working
81,Hf1 Nb1 Ta1 Ti1 Zr1,BCC+BCC,WROUGHT,other,,,9.9,,T,25.0,1303.0,1334.0,,,,111,,,,10.1016/j.jallcom.2015.07.209,2015,Microstructure and properties of a refractory high-entropy alloy after cold working
81,Hf1 Nb1 Ta1 Ti1 Zr1,BCC,WROUGHT,BCC,,,9.9,351.0,T,25.0,1145.0,1262.0,9.7,,,111,,,,10.1016/j.jallcom.2015.07.209,2015,Microstructure and properties of a refractory high-entropy alloy after cold working
82,Hf1 Nb1 Ta1 Ti1 Zr1,BCC,WROUGHT,BCC,,,9.9,,T,25.0,958.0,974.0,,,,111,,,,10.1016/j.matlet.2016.08.060,2016,Simultaneously increasing the strength and ductility of a refractory high-entropy alloy via grain refining
82,Hf1 Nb1 Ta1 Ti1 Zr1,BCC,WROUGHT,BCC,,,9.9,,T,25.0,944.0,959.0,,,,111,,,,10.1016/j.matlet.2016.08.060,2016,Simultaneously increasing the strength and ductility of a refractory high-entropy alloy via grain refining
82,Hf1 Nb1 Ta1 Ti1 Zr1,BCC,WROUGHT,BCC,,,9.9,,T,25.0,940.0,953.0,,,,111,,,,10.1016/j.matlet.2016.08.060,2016,Simultaneously increasing the strength and ductility of a refractory high-entropy alloy via grain refining
83,Hf1 Nb1 Ta1 Ti1 Zr1,BCC,WROUGHT,BCC,,,9.9,,T,25.0,940.0,1080.0,,,,111,,,,10.1016/j.actamat.2017.09.062,2018,Study of a bcc multi-principal element alloy: Tensile and simple shear properties and underlying deformation mechanisms
84,Hf1 Nb1 Ta1 Ti1 Zr1,BCC,OTHER,BCC,,,9.9,,C,25.0,929.0,,,,,111,,,,10.1016/j.jallcom.2011.02.171,2011,Microstructure and room temperature properties of a high-entropy TaNbHfZrTi alloy
85,Hf1 Nb1 Ta1 Ti1 Zr1,BCC,CAST,BCC,,,9.9,,C,25.0,905.0,,,,,111,,,,10.1016/j.msea.2015.08.024,2015,On the room temperature deformation mechanisms of a TiZrHfNbTa refractory high-entropy alloy
86,Hf1 Nb1 Ta1 Ti1 Zr1,BCC,CAST,BCC,,,9.9,,C,25.0,890.0,,,,,111,,,,10.1016/j.matchar.2015.11.018,2016,Mechanical behavior and microstructure of Ti20Hf20Zr20Ta20Nb20 high-entropy alloy loaded under quasi-static and dynamic compression conditions
87,Hf1 Nb1 Ta1 Ti1 Zr1,BCC,CAST,BCC,,,9.9,,T,25.0,828.0,862.0,,,,111,,,,10.1016/j.msea.2015.12.017,2016,Elastic and plastic properties of as-cast equimolar TiHfZrTaNb high-entropy alloy
87,Hf1 Nb1 Ta1 Ti1 Zr1,BCC,CAST,BCC,,,9.9,,T,25.0,827.0,856.0,,,,111,,,,10.1016/j.msea.2015.12.017,2016,Elastic and plastic properties of as-cast equimolar TiHfZrTaNb high-entropy alloy
87,Hf1 Nb1 Ta1 Ti1 Zr1,BCC,CAST,BCC,,,9.9,,T,25.0,820.0,869.0,,,,111,,,,10.1016/j.msea.2015.12.017,2016,Elastic and plastic properties of as-cast equimolar TiHfZrTaNb high-entropy alloy
87,Hf1 Nb1 Ta1 Ti1 Zr1,BCC,CAST,BCC,,,9.9,,T,25.0,803.0,810.0,,,,111,,,,10.1016/j.msea.2015.12.017,2016,Elastic and plastic properties of as-cast equimolar TiHfZrTaNb high-entropy alloy
88,Al0.2 Mo1 Ta1 Ti1 V1,BCC,CAST,BCC,,,9.1,,C,25.0,1021.0,1249.0,,,,184,,,,10.4028/www.scientific.net/MSF.898.638,2017,Microstructure and Mechanical Properties of VTaTiMoAlsubx/sub Refractory High Entropy Alloys
88,Al0.6 Mo1 Ta1 Ti1 V1,BCC,CAST,BCC,,,8.5,,C,25.0,962.0,1033.0,,,,174,,,,10.4028/www.scientific.net/MSF.898.638,2017,Microstructure and Mechanical Properties of VTaTiMoAlsubx/sub Refractory High Entropy Alloys
88,Al1 Mo1 Ta1 Ti1 V1,BCC,CAST,BCC,,,8.0,,C,25.0,,735.0,,,,166,,,,10.4028/www.scientific.net/MSF.898.638,2017,Microstructure and Mechanical Properties of VTaTiMoAlsubx/sub Refractory High Entropy Alloys
88,Mo1 Ta1 Ti1 V1,BCC,CAST,BCC,,,9.4,,C,25.0,1221.0,1454.0,,,,190,,,,10.4028/www.scientific.net/MSF.898.638,2017,Microstructure and Mechanical Properties of VTaTiMoAlsubx/sub Refractory High Entropy Alloys
89,Hf1 Nb1 Ta1 Zr1,BCC+HCP,ANNEAL,other,,,11.3,571.0,C,25.0,2310.0,,0.3,,,109,,,,10.1016/j.actamat.2016.01.018,2016,Structural-disorder and its effect on mechanical properties in single-phase TaNbHfZr high-entropy alloy
89,Hf1 Nb1 Ta1 Zr1,BCC+HCP,ANNEAL,other,,,11.3,536.0,C,25.0,2100.0,2200.0,3.5,,,109,,,,10.1016/j.actamat.2016.01.018,2016,Structural-disorder and its effect on mechanical properties in single-phase TaNbHfZr high-entropy alloy
89,Hf1 Nb1 Ta1 Zr1,BCC+HCP,ANNEAL,other,,,11.3,,C,25.0,2020.0,2030.0,1.7,,,109,,,,10.1016/j.actamat.2016.01.018,2016,Structural-disorder and its effect on mechanical properties in single-phase TaNbHfZr high-entropy alloy
89,Hf1 Nb1 Ta1 Zr1,BCC+HCP,ANNEAL,other,,,11.3,550.0,C,25.0,1950.0,2010.0,2.2,,,109,,,,10.1016/j.actamat.2016.01.018,2016,Structural-disorder and its effect on mechanical properties in single-phase TaNbHfZr high-entropy alloy
89,Hf1 Nb1 Ta1 Zr1,BCC,CAST,BCC,,,11.3,365.0,C,25.0,1315.0,1800.0,21.6,,,109,,,,10.1016/j.actamat.2016.01.018,2016,Structural-disorder and its effect on mechanical properties in single-phase TaNbHfZr high-entropy alloy
90,Hf1 Ta0.4 Ti1 Zr1,BCC+HCP,CAST,other,,,9.1,,T,25.0,400.0,1100.0,,,,99,,,,10.1002/adma.201701678,2017,Phase-Transformation Ductilization of Brittle High-Entropy Alloys via Metastability Engineering
90,Hf1 Ta0.5 Ti1 Zr1,BCC+HCP,CAST,other,,,9.3,,T,25.0,700.0,1100.0,,,,101,,,,10.1002/adma.201701678,2017,Phase-Transformation Ductilization of Brittle High-Entropy Alloys via Metastability Engineering
90,Hf1 Ta0.6 Ti1 Zr1,BCC+HCP,CAST,other,,,9.5,,T,25.0,800.0,1100.0,,,,104,,,,10.1002/adma.201701678,2017,Phase-Transformation Ductilization of Brittle High-Entropy Alloys via Metastability Engineering
90,Hf1 Ta1 Ti1 Zr1,BCC,CAST,BCC,,,10.2,,T,25.0,1500.0,1500.0,,,,112,,,,10.1002/adma.201701678,2017,Phase-Transformation Ductilization of Brittle High-Entropy Alloys via Metastability Engineering
91,Mo1 Nb1 Ta1 Ti0.25 W1,BCC,CAST,BCC,,,13.1,478.3,C,25.0,1109.0,1197.0,,,,249,,,,10.1016/j.msea.2017.12.004,2018,Microstructures and mechanical properties of Ti NbMoTaW refractory high-entropy alloys
91,Mo1 Nb1 Ta1 Ti0.5 W1,BCC,CAST,BCC,,,12.7,481.2,C,25.0,1211.0,1578.0,,,,242,,,,10.1016/j.msea.2017.12.004,2018,Microstructures and mechanical properties of Ti NbMoTaW refractory high-entropy alloys
91,Mo1 Nb1 Ta1 Ti0.75 W1,BCC,CAST,BCC,,,12.2,495.6,C,25.0,1304.0,1593.0,,,,235,,,,10.1016/j.msea.2017.12.004,2018,Microstructures and mechanical properties of Ti NbMoTaW refractory high-entropy alloys
91,Mo1 Nb1 Ta1 Ti1 W1,BCC,CAST,BCC,,,11.9,507.5,C,25.0,1455.0,1910.0,,,,229,,,,10.1016/j.msea.2017.12.004,2018,Microstructures and mechanical properties of Ti NbMoTaW refractory high-entropy alloys
91,Mo1 Nb1 Ta1 W1,BCC,CAST,BCC,,,13.7,,C,25.0,996.0,1148.0,,,,258,,,,10.1016/j.msea.2017.12.004,2018,Microstructures and mechanical properties of Ti NbMoTaW refractory high-entropy alloys
92,Mo1 Nb1 Ta1 Ti1 V1,BCC,CAST,BCC,,,9.2,,C,25.0,1400.0,2450.0,,,,173,,,,10.1016/j.jallcom.2016.11.188,2017,Mechanical properties of refractory high-entropy alloys: Experiments and modeling
93,Mo1 Nb1 Ta1 Ti1 V1 W1,BCC,CAST,BCC,,,10.9,,C,600.0,973.0,1590.0,,,,213,,,,10.1016/j.intermet.2017.01.007,2017,Effect of Ti additions on mechanical properties of NbMoTaW and VNbMoTaW refractory high entropy alloys
93,Mo1 Nb1 Ta1 Ti1 V1 W1,BCC,CAST,BCC,,,10.9,,C,800.0,791.3,1180.0,,,,213,,,,10.1016/j.intermet.2017.01.007,2017,Effect of Ti additions on mechanical properties of NbMoTaW and VNbMoTaW refractory high entropy alloys
93,Mo1 Nb1 Ta1 Ti1 V1 W1,BCC,CAST,BCC,,,10.9,,C,1000.0,752.8,1105.0,,,,213,,,,10.1016/j.intermet.2017.01.007,2017,Effect of Ti additions on mechanical properties of NbMoTaW and VNbMoTaW refractory high entropy alloys
93,Mo1 Nb1 Ta1 Ti1 V1 W1,BCC,CAST,BCC,,,10.9,,C,1200.0,659.0,696.0,,,,213,,,,10.1016/j.intermet.2017.01.007,2017,Effect of Ti additions on mechanical properties of NbMoTaW and VNbMoTaW refractory high entropy alloys
93,Mo1 Nb1 Ta1 Ti1 V1 W1,BCC,CAST,BCC,,,10.9,,C,25.0,1515.0,2135.0,,,,213,,,,10.1016/j.intermet.2017.01.007,2017,Effect of Ti additions on mechanical properties of NbMoTaW and VNbMoTaW refractory high entropy alloys
93,Mo1 Nb1 Ta1 Ti1 W1,BCC,CAST,BCC,,,11.9,,C,600.0,689.0,1681.0,,,,229,,,,10.1016/j.intermet.2017.01.007,2017,Effect of Ti additions on mechanical properties of NbMoTaW and VNbMoTaW refractory high entropy alloys
93,Mo1 Nb1 Ta1 Ti1 W1,BCC,CAST,BCC,,,11.9,,C,800.0,674.0,1618.0,,,,229,,,,10.1016/j.intermet.2017.01.007,2017,Effect of Ti additions on mechanical properties of NbMoTaW and VNbMoTaW refractory high entropy alloys
93,Mo1 Nb1 Ta1 Ti1 W1,BCC,CAST,BCC,,,11.9,,C,1000.0,620.0,1426.0,,,,229,,,,10.1016/j.intermet.2017.01.007,2017,Effect of Ti additions on mechanical properties of NbMoTaW and VNbMoTaW refractory high entropy alloys
93,Mo1 Nb1 Ta1 Ti1 W1,BCC,CAST,BCC,,,11.9,,C,1200.0,586.0,814.0,,,,229,,,,10.1016/j.intermet.2017.01.007,2017,Effect of Ti additions on mechanical properties of NbMoTaW and VNbMoTaW refractory high entropy alloys
93,Mo1 Nb1 Ta1 Ti1 W1,BCC,CAST,BCC,,,11.9,,C,25.0,1343.0,2005.0,,,,229,,,,10.1016/j.intermet.2017.01.007,2017,Effect of Ti additions on mechanical properties of NbMoTaW and VNbMoTaW refractory high entropy alloys
94,Mo1 Nb1 Ta1 Ti1 Zr1,BCC+BCC,CAST,other,,,9.3,,C,25.0,1390.0,,,,,161,,,,10.1016/j.msec.2016.12.057,2017,TiZrNbTaMo high-entropy alloy designed for orthopedic implants: As-cast microstructure and mechanical properties
95,Mo1 Nb1 Ta1 Ti1 Zr1,BCC+BCC,ANNEAL,other,,,9.3,,C,25.0,1100.0,1200.0,,,,161,,,,10.1016/j.scriptamat.2016.10.028,2017,Novel TiNbTaZrMo high-entropy alloys for metallic biomaterials
95,Mo1 Nb1 Ta1 Ti1 Zr1,BCC+BCC,CAST,other,,,9.3,,C,25.0,1375.0,1450.0,,,,161,,,,10.1016/j.scriptamat.2016.10.028,2017,Novel TiNbTaZrMo high-entropy alloys for metallic biomaterials
96,Mo1 Nb1 Ta1 V1 W1,BCC,POWDER,BCC,,,12.2,,C,25.0,2612.0,3472.0,,,,232,,,,10.1016/j.msea.2017.12.021,2018,Ultra-high strength WNbMoTaV high-entropy alloys with fine grain structure fabricated by powder metallurgical process
97,Nb1 Ta1 Ti1 V1,BCC,CAST,BCC,,,9.0,,C,25.0,965.0,,,,,134,,,,10.1016/j.msea.2016.07.102,2016,"NbTaV-(Ti,W) refractory high-entropy alloys: Experiments and modeling"
97,Nb1 Ta1 Ti1 V1 W1,BCC,CAST,BCC,,,11.0,,C,25.0,1420.0,1800.0,20.0,,,189,,,,10.1016/j.msea.2016.07.102,2016,"NbTaV-(Ti,W) refractory high-entropy alloys: Experiments and modeling"
97,Nb1 Ta1 V1 W1,BCC,CAST,BCC,,,12.6,,C,25.0,1530.0,1700.0,12.0,,,208,,,,10.1016/j.msea.2016.07.102,2016,"NbTaV-(Ti,W) refractory high-entropy alloys: Experiments and modeling"
98,Al0.25 Cr0.5 Nb0.5 Ti1 V0.25,BCC+Laves,ANNEAL,other,,,5.8,,C,600.0,930.0,,,,,143,,,,10.1016/j.matlet.2016.11.030,2017,Precipitation-strengthened refractory Al 0.5 CrNbTi 2 V 0.5 high entropy alloy
98,Al0.25 Cr0.5 Nb0.5 Ti1 V0.25,BCC+Laves,ANNEAL,other,,,5.8,,C,800.0,445.0,,,,,143,,,,10.1016/j.matlet.2016.11.030,2017,Precipitation-strengthened refractory Al 0.5 CrNbTi 2 V 0.5 high entropy alloy
98,Al0.25 Cr0.5 Nb0.5 Ti1 V0.25,BCC+Laves,ANNEAL,other,,,5.8,,C,1000.0,90.0,,,,,143,,,,10.1016/j.matlet.2016.11.030,2017,Precipitation-strengthened refractory Al 0.5 CrNbTi 2 V 0.5 high entropy alloy
98,Al0.25 Cr0.5 Nb0.5 Ti1 V0.25,BCC+Laves,ANNEAL,other,,,5.8,,C,25.0,1340.0,1700.0,,,,143,,,,10.1016/j.matlet.2016.11.030,2017,Precipitation-strengthened refractory Al 0.5 CrNbTi 2 V 0.5 high entropy alloy
98,Al0.25 Cr0.5 Nb0.5 Ti1 V0.25,BCC,CAST,BCC,,,5.8,,C,25.0,1240.0,,,,,143,,,,10.1016/j.matlet.2016.11.030,2017,Precipitation-strengthened refractory Al 0.5 CrNbTi 2 V 0.5 high entropy alloy
99,Al1 Cr0.5 Nb1 Ti1 V1,BCC,ANNEAL,BCC,,,5.7,,C,600.0,1005.0,1045.0,,,,124,,,,10.1016/j.jallcom.2015.08.224,2015,"Structure and mechanical properties of the AlCrxNbTiV (x = 0, 0.5, 1, 1.5) high entropy alloys"
99,Al1 Cr0.5 Nb1 Ti1 V1,BCC,ANNEAL,BCC,,,5.7,,C,800.0,640.0,685.0,,,,124,,,,10.1016/j.jallcom.2015.08.224,2015,"Structure and mechanical properties of the AlCrxNbTiV (x = 0, 0.5, 1, 1.5) high entropy alloys"
99,Al1 Cr0.5 Nb1 Ti1 V1,BCC,ANNEAL,BCC,,,5.7,,C,1000.0,40.0,80.0,,,,124,,,,10.1016/j.jallcom.2015.08.224,2015,"Structure and mechanical properties of the AlCrxNbTiV (x = 0, 0.5, 1, 1.5) high entropy alloys"
99,Al1 Cr0.5 Nb1 Ti1 V1,BCC,ANNEAL,BCC,,,5.7,,C,25.0,1300.0,1430.0,,,,124,,,,10.1016/j.jallcom.2015.08.224,2015,"Structure and mechanical properties of the AlCrxNbTiV (x = 0, 0.5, 1, 1.5) high entropy alloys"
99,Al0.667 Cr1 Nb0.667 Ti0.667 V0.667,BCC+Laves,ANNEAL,other,,,5.9,,C,600.0,1370.0,1480.0,,,,152,,,,10.1016/j.jallcom.2015.08.224,2015,"Structure and mechanical properties of the AlCrxNbTiV (x = 0, 0.5, 1, 1.5) high entropy alloys"
99,Al0.667 Cr1 Nb0.667 Ti0.667 V0.667,BCC+Laves,ANNEAL,other,,,5.9,,C,800.0,970.0,1045.0,,,,152,,,,10.1016/j.jallcom.2015.08.224,2015,"Structure and mechanical properties of the AlCrxNbTiV (x = 0, 0.5, 1, 1.5) high entropy alloys"
99,Al0.667 Cr1 Nb0.667 Ti0.667 V0.667,BCC+Laves,ANNEAL,other,,,5.9,,C,1000.0,75.0,105.0,,,,152,,,,10.1016/j.jallcom.2015.08.224,2015,"Structure and mechanical properties of the AlCrxNbTiV (x = 0, 0.5, 1, 1.5) high entropy alloys"
99,Al0.667 Cr1 Nb0.667 Ti0.667 V0.667,BCC+Laves,ANNEAL,other,,,5.9,,C,25.0,1700.0,1700.0,,,,152,,,,10.1016/j.jallcom.2015.08.224,2015,"Structure and mechanical properties of the AlCrxNbTiV (x = 0, 0.5, 1, 1.5) high entropy alloys"
99,Al1 Cr1 Nb1 Ti1 V1,BCC+Laves,ANNEAL,other,,,5.8,,C,600.0,1015.0,1060.0,,,,140,,,,10.1016/j.jallcom.2015.08.224,2015,"Structure and mechanical properties of the AlCrxNbTiV (x = 0, 0.5, 1, 1.5) high entropy alloys"
99,Al1 Cr1 Nb1 Ti1 V1,BCC+Laves,ANNEAL,other,,,5.8,,C,800.0,860.0,895.0,,,,140,,,,10.1016/j.jallcom.2015.08.224,2015,"Structure and mechanical properties of the AlCrxNbTiV (x = 0, 0.5, 1, 1.5) high entropy alloys"
99,Al1 Cr1 Nb1 Ti1 V1,BCC+Laves,ANNEAL,other,,,5.8,,C,1000.0,65.0,95.0,,,,140,,,,10.1016/j.jallcom.2015.08.224,2015,"Structure and mechanical properties of the AlCrxNbTiV (x = 0, 0.5, 1, 1.5) high entropy alloys"
99,Al1 Cr1 Nb1 Ti1 V1,BCC+Laves,ANNEAL,other,,,5.8,,C,25.0,1550.0,1570.0,,,,140,,,,10.1016/j.jallcom.2015.08.224,2015,"Structure and mechanical properties of the AlCrxNbTiV (x = 0, 0.5, 1, 1.5) high entropy alloys"
99,Al1 Nb1 Ti1 V1,BCC,ANNEAL,BCC,,,5.5,,C,600.0,780.0,1005.0,,,,105,,,,10.1016/j.jallcom.2015.08.224,2015,"Structure and mechanical properties of the AlCrxNbTiV (x = 0, 0.5, 1, 1.5) high entropy alloys"
99,Al1 Nb1 Ti1 V1,BCC,ANNEAL,BCC,,,5.5,,C,800.0,560.0,700.0,,,,105,,,,10.1016/j.jallcom.2015.08.224,2015,"Structure and mechanical properties of the AlCrxNbTiV (x = 0, 0.5, 1, 1.5) high entropy alloys"
99,Al1 Nb1 Ti1 V1,BCC,ANNEAL,BCC,,,5.5,,C,1000.0,110.0,,,,,105,,,,10.1016/j.jallcom.2015.08.224,2015,"Structure and mechanical properties of the AlCrxNbTiV (x = 0, 0.5, 1, 1.5) high entropy alloys"
99,Al1 Nb1 Ti1 V1,BCC,ANNEAL,BCC,,,5.5,,C,25.0,1000.0,1280.0,,,,105,,,,10.1016/j.jallcom.2015.08.224,2015,"Structure and mechanical properties of the AlCrxNbTiV (x = 0, 0.5, 1, 1.5) high entropy alloys"
256,Al1 Cr1 Fe1 Mo0.5 Ni1,BCC+B2,CAST,other,,,7.1,623.7,C,25.0,1914.1,4023.6,27.9,,,205,,,,10.1002/maco.201709833,2017,"Structures and corrosion properties of the AlCrFeNiMo0.5
Ti
                            x
 high entropy alloys"
256,Al1 Cr1 Fe1 Mo0.5 Ni1 Ti0.25,BCC+B2,CAST,other,,,6.9,712.0,C,25.0,2161.7,3641.5,14.3,,,201,,,,10.1002/maco.201709833,2017,"Structures and corrosion properties of the AlCrFeNiMo0.5
256,Al1 Cr1 Fe1 Mo0.5 Ni1 Ti0.4,BCC+B2,CAST,other,,,6.8,731.9,C,25.0,2185.1,3673.4,14.8,,,198,,,,10.1002/maco.201709833,2017,"Structures and corrosion properties of the AlCrFeNiMo0.5
256,Al1 Cr1 Fe1 Mo0.5 Ni1 Ti0.5,BCC+B2,CAST,other,,,6.8,751.7,C,25.0,2228.7,3166.2,10.4,,,196,,,,10.1002/maco.201709833,2017,"Structures and corrosion properties of the AlCrFeNiMo0.5
256,Al1 Cr1 Fe1 Mo0.5 Ni1 Ti0.6,BCC+B2,CAST,other,,,6.8,756.1,C,25.0,1314.5,1314.5,,,,195,,,,10.1002/maco.201709833,2017,"Structures and corrosion properties of the AlCrFeNiMo0.5
256,Al1 Cr1 Fe1 Mo0.5 Ni1 Ti0.75,BCC+B2,CAST,other,,,6.7,766.2,C,25.0,618.8,618.8,,,,193,,,,10.1002/maco.201709833,2017,"Structures and corrosion properties of the AlCrFeNiMo0.5
257,Al1 Cr1 Mo1 Nb1,Laves (C14)+Sec.,ANNEAL,other,,,7.2,,,,,,,,,196,,,,10.1016/j.matdes.2018.06.003,2018,"Phase equilibria, mechanical properties and design of quaternary refractory high entropy alloys"
257,Al1 Cr1 Mo1 Nb1,Laves (C14)+Sec.,CAST,other,,,7.2,,,,,,,,,196,,,,10.1016/j.matdes.2018.06.003,2018,"Phase equilibria, mechanical properties and design of quaternary refractory high entropy alloys"
257,Al1 Hf1 Nb1 Ti1,B2,ANNEAL,other,,,7.3,,,,,,,,,92,,,,10.1016/j.matdes.2018.06.003,2018,"Phase equilibria, mechanical properties and design of quaternary refractory high entropy alloys"
257,Al1 Hf1 Nb1 Ti1,B2,CAST,other,,,7.3,,,,,,,,,92,,,,10.1016/j.matdes.2018.06.003,2018,"Phase equilibria, mechanical properties and design of quaternary refractory high entropy alloys"
257,Al1 Hf1 Ta1 Ti1,B2,ANNEAL,other,,,9.3,,,,,,,,,112,,,,10.1016/j.matdes.2018.06.003,2018,"Phase equilibria, mechanical properties and design of quaternary refractory high entropy alloys"
257,Al1 Hf1 Ta1 Ti1,B2,CAST,other,,,9.3,,,,,,,,,112,,,,10.1016/j.matdes.2018.06.003,2018,"Phase equilibria, mechanical properties and design of quaternary refractory high entropy alloys"
257,Al1 Mo1 Nb1 Ti1,BCC+Sec.,ANNEAL,other,,,6.5,,,,,,,,,155,,,,10.1016/j.matdes.2018.06.003,2018,"Phase equilibria, mechanical properties and design of quaternary refractory high entropy alloys"
257,Al1 Mo1 Nb1 Ti1,BCC,CAST,BCC,,,6.5,509.0,,,,,,,,155,,,,10.1016/j.matdes.2018.06.003,2018,"Phase equilibria, mechanical properties and design of quaternary refractory high entropy alloys"
257,Al1 Nb1 Ta1 Ti1,BCC+Sec.,ANNEAL,other,,,8.1,,,,,,,,,119,,,,10.1016/j.matdes.2018.06.003,2018,"Phase equilibria, mechanical properties and design of quaternary refractory high entropy alloys"
257,Al1 Nb1 Ta1 Ti1,BCC,CAST,BCC,,,8.1,458.0,,,,,,,,119,,,,10.1016/j.matdes.2018.06.003,2018,"Phase equilibria, mechanical properties and design of quaternary refractory high entropy alloys"
257,Cr1 Mo1 Ta1 Ti1,BCC,ANNEAL,BCC,,,9.6,555.0,,,,,,,,228,,,,10.1016/j.matdes.2018.06.003,2018,"Phase equilibria, mechanical properties and design of quaternary refractory high entropy alloys"