IDENTIFIER: Reference ID,FORMULA,PROPERTY: Microstructure,PROPERTY: Processing method,PROPERTY: BCC/FCC/other,PROPERTY: grain size ($\mu$m),PROPERTY: Exp. Density (g/cm$^3$),PROPERTY: Calculated Density (g/cm$^3$),PROPERTY: HV,PROPERTY: Type of test,PROPERTY: Test temperature ($^\circ$C),PROPERTY: YS (MPa),PROPERTY: UTS (MPa),PROPERTY: Elongation (%),PROPERTY: Elongation plastic (%),PROPERTY: Exp. Young modulus (GPa),PROPERTY: Calculated Young modulus (GPa),PROPERTY: O content (wppm),PROPERTY: N content (wppm),PROPERTY: C content (wppm),REFERENCE: doi,REFERENCE: year,REFERENCE: title
99,Al0.7 Cr1 Fe1 Mn1 Ni1,BCC+B2,CAST,other,,,6.8,375.0,C,25.0,1170.0,,55.0,,,,,,,10.1016/j.msea.2019.04.104,2019,The microstructure and mechanical properties of novel Al-Cr-Fe-Mn-Ni high-entropy alloys with trimodal distributions of coherent B2 precipitates
99,Al0.8 Cr1 Fe1 Mn1 Ni1,BCC+B2,CAST,other,,,6.7,386.0,C,25.0,1200.0,,55.0,,,,,,,10.1016/j.msea.2019.04.104,2019,The microstructure and mechanical properties of novel Al-Cr-Fe-Mn-Ni high-entropy alloys with trimodal distributions of coherent B2 precipitates
100,Co1 Cr0.2 Fe1 Ni1 Si0.2,FCC,CAST,FCC,,,7.8,130.1,T,25.0,225.0,732.0,61.0,,,195,,,,10.1016/j.jmmm.2019.01.096,2019,A novel FeCoNiCr0.2Si0.2 high entropy alloy with an excellent balance of mechanical and soft magnetic properties
100,Co1 Cr0.2 Fe1 Ni1 Si0.2,FCC,WROUGHT,FCC,,,7.8,318.2,T,25.0,705.0,1070.0,10.0,,,195,,,,10.1016/j.jmmm.2019.01.096,2019,A novel FeCoNiCr0.2Si0.2 high entropy alloy with an excellent balance of mechanical and soft magnetic properties
100,Co1 Cr0.2 Fe1 Ni1 Si0.2,FCC,WROUGHT,FCC,,,7.8,153.8,T,25.0,320.0,920.0,60.0,,,195,,,,10.1016/j.jmmm.2019.01.096,2019,A novel FeCoNiCr0.2Si0.2 high entropy alloy with an excellent balance of mechanical and soft magnetic properties
101,Al1 Cu0.077 Fe0.077 Mg0.077 Si0.231 Zn0.077,FCC,CAST,FCC,,3.08,3.2,,C,25.0,422.0,,1.0,,88.7,73,,,,10.1038/s41598-019-43329-w,2019,"Design, Microstructure and Mechanical Properties of Cast Medium Entropy Aluminium Alloys"
101,Al1 Cu0.077 Mg0.077 Ni0.077 Si0.231 Zn0.077,FCC,CAST,FCC,,3.15,3.2,,C,25.0,534.0,,1.0,,107.8,72,,,,10.1038/s41598-019-43329-w,2019,"Design, Microstructure and Mechanical Properties of Cast Medium Entropy Aluminium Alloys"
101,Al1 Cr0.077 Cu0.077 Mg0.077 Si0.231 Zn0.077,FCC,CAST,FCC,,3.06,3.1,,C,25.0,490.0,,6.0,,78.4,75,,,,10.1038/s41598-019-43329-w,2019,"Design, Microstructure and Mechanical Properties of Cast Medium Entropy Aluminium Alloys"
101,Al1 Cu0.077 Mg0.077 Mn0.077 Si0.231 Zn0.077,FCC,CAST,FCC,,2.98,3.2,,C,25.0,622.0,,2.0,,114.1,73,,,,10.1038/s41598-019-43329-w,2019,"Design, Microstructure and Mechanical Properties of Cast Medium Entropy Aluminium Alloys"
101,Al1 Cu0.077 Mg0.077 Si0.231 Zn0.077 Zr0.077,FCC+Laves,CAST,other,,3.06,3.2,,C,25.0,565.0,,4.0,,105.1,,,,,10.1038/s41598-019-43329-w,2019,"Design, Microstructure and Mechanical Properties of Cast Medium Entropy Aluminium Alloys"
102,Co1 Cr1 Fe1 Mo0.2 Ni1,FCC,CAST,FCC,,,8.3,,T,25.0,400.0,780.0,53.0,,,232,,,,10.3390/e21050448,2019,Effects of Annealing on Microstructure and Mechanical Properties of Metastable Powder Metallurgy CoCrFeNiMo0.2 High Entropy Alloy
102,Co1 Cr1 Fe1 Mo0.2 Ni1,FCC,ANNEAL,FCC,,,8.3,,T,25.0,,838.0,43.0,,,232,,,,10.3390/e21050448,2019,Effects of Annealing on Microstructure and Mechanical Properties of Metastable Powder Metallurgy CoCrFeNiMo0.2 High Entropy Alloy
102,Co1 Cr1 Fe1 Mo0.2 Ni1,FCC,ANNEAL,FCC,,,8.3,,T,25.0,,899.0,31.0,,,232,,,,10.3390/e21050448,2019,Effects of Annealing on Microstructure and Mechanical Properties of Metastable Powder Metallurgy CoCrFeNiMo0.2 High Entropy Alloy
102,Co1 Cr1 Fe1 Mo0.2 Ni1,FCC,ANNEAL,FCC,,,8.3,,T,25.0,,902.0,29.0,,,232,,,,10.3390/e21050448,2019,Effects of Annealing on Microstructure and Mechanical Properties of Metastable Powder Metallurgy CoCrFeNiMo0.2 High Entropy Alloy
102,Co1 Cr1 Fe1 Mo0.2 Ni1,FCC,ANNEAL,FCC,,,8.3,,T,25.0,,811.0,52.0,,,232,,,,10.3390/e21050448,2019,Effects of Annealing on Microstructure and Mechanical Properties of Metastable Powder Metallurgy CoCrFeNiMo0.2 High Entropy Alloy
102,Co1 Cr1 Fe1 Mo0.2 Ni1,FCC,ANNEAL,FCC,,,8.3,,T,25.0,,790.0,49.0,,,232,,,,10.3390/e21050448,2019,Effects of Annealing on Microstructure and Mechanical Properties of Metastable Powder Metallurgy CoCrFeNiMo0.2 High Entropy Alloy
102,Co1 Cr1 Fe1 Mo0.2 Ni1,FCC,ANNEAL,FCC,,,8.3,,T,25.0,,799.0,47.0,,,232,,,,10.3390/e21050448,2019,Effects of Annealing on Microstructure and Mechanical Properties of Metastable Powder Metallurgy CoCrFeNiMo0.2 High Entropy Alloy
102,Co1 Cr1 Fe1 Mo0.2 Ni1,FCC,ANNEAL,FCC,,,8.3,,T,25.0,,802.0,37.0,,,232,,,,10.3390/e21050448,2019,Effects of Annealing on Microstructure and Mechanical Properties of Metastable Powder Metallurgy CoCrFeNiMo0.2 High Entropy Alloy
102,Co1 Cr1 Fe1 Mo0.2 Ni1,FCC,ANNEAL,FCC,,,8.3,,T,25.0,,823.0,36.0,,,232,,,,10.3390/e21050448,2019,Effects of Annealing on Microstructure and Mechanical Properties of Metastable Powder Metallurgy CoCrFeNiMo0.2 High Entropy Alloy
102,Co1 Cr1 Fe1 Mo0.2 Ni1,FCC,ANNEAL,FCC,,,8.3,,T,25.0,,849.0,34.0,,,232,,,,10.3390/e21050448,2019,Effects of Annealing on Microstructure and Mechanical Properties of Metastable Powder Metallurgy CoCrFeNiMo0.2 High Entropy Alloy
102,Co1 Cr1 Fe1 Mo0.2 Ni1,FCC,ANNEAL,FCC,,,8.3,,T,25.0,,895.0,32.0,,,232,,,,10.3390/e21050448,2019,Effects of Annealing on Microstructure and Mechanical Properties of Metastable Powder Metallurgy CoCrFeNiMo0.2 High Entropy Alloy
103,Al0.569 Ca0.143 Li0.857 Mg1 Si0.286 Y0.003,,CAST,other,,1.7,1.6,,C,25.0,556.0,,3.0,,,,,,,10.3390/ma12071136,2019,Novel Ultralight-Weight Complex Concentrated Alloys with High Strength
103,Al0.429 Ca0.286 Li1 Mg1 Si0.143,,CAST,other,,1.57,1.4,,C,25.0,418.0,,13.0,,,,,,,10.3390/ma12071136,2019,Novel Ultralight-Weight Complex Concentrated Alloys with High Strength
103,Al0.312 Ca0.021 Li0.792 Mg1 Si0.021,,CAST,other,,1.52,1.4,,C,25.0,360.0,,9.0,,,,,,,10.3390/ma12071136,2019,Novel Ultralight-Weight Complex Concentrated Alloys with High Strength
103,Al0.333 Ca0.011 Li0.844 Mg1 Si0.033,,CAST,other,,1.5,1.4,,C,25.0,342.0,,44.0,,,,,,,10.3390/ma12071136,2019,Novel Ultralight-Weight Complex Concentrated Alloys with High Strength
103,Al0.333 Ca0.011 Li0.867 Mg1 Si0.011,,CAST,other,,1.46,1.4,,C,25.0,300.0,,63.0,,,,,,,10.3390/ma12071136,2019,Novel Ultralight-Weight Complex Concentrated Alloys with High Strength
104,Co1 Cr1 Fe1 Ni1 Pd1,FCC,CAST,FCC,,,9.2,295.0,,,,,,,,201,,,,10.3390/e21030288,2019,Effect of Mn Addition on the Microstructures and Mechanical Properties of CoCrFeNiPd High Entropy Alloy
104,Co1 Cr1 Fe1 Mn0.2 Ni1 Pd1,FCC+Sec.,CAST,other,,,9.1,470.0,C,25.0,650.0,,50.0,,,,,,,10.3390/e21030288,2019,Effect of Mn Addition on the Microstructures and Mechanical Properties of CoCrFeNiPd High Entropy Alloy
104,Co1 Cr1 Fe1 Mn0.4 Ni1 Pd1,FCC+Sec.,CAST,other,,,9.1,380.0,C,25.0,650.0,,46.0,,,,,,,10.3390/e21030288,2019,Effect of Mn Addition on the Microstructures and Mechanical Properties of CoCrFeNiPd High Entropy Alloy
104,Co1 Cr1 Fe1 Mn0.6 Ni1 Pd1,FCC+Sec.,CAST,other,,,9.0,180.0,C,25.0,650.0,,42.0,,,,,,,10.3390/e21030288,2019,Effect of Mn Addition on the Microstructures and Mechanical Properties of CoCrFeNiPd High Entropy Alloy
104,Co1 Cr1 Fe1 Mn0.8 Ni1 Pd1,FCC+Sec.,CAST,other,,,8.9,160.0,C,25.0,650.0,,35.0,,,,,,,10.3390/e21030288,2019,Effect of Mn Addition on the Microstructures and Mechanical Properties of CoCrFeNiPd High Entropy Alloy
106,Al0.3 Co1 Cr1 Fe1 Mn1 Ni1,,POWDER,other,,,7.6,,,,,,,,,,,,,10.1016/j.scriptamat.2018.12.021,2019,Strengthening of Al0.3CoCrFeMnNi-based ODS high entropy alloys with incremental changes in the concentration of Y2O3
107,Cr1 Fe1 Ni1 Ti0.2,BCC+FCC,CAST,other,,,7.6,362.2,C,25.0,2297.94,,5.8,,,,,,,10.1557/jmr.2019.40,2019,Effects of titanium addition on microstructure and mechanical properties of CrFeNiTix (x = 0.2–0.6) compositionally complex alloys
107,Cr1 Fe1 Ni1 Ti0.3,BCC+FCC,CAST,other,,,7.5,510.3,C,25.0,2364.63,,,,,,,,,10.1557/jmr.2019.40,2019,Effects of titanium addition on microstructure and mechanical properties of CrFeNiTix (x = 0.2–0.6) compositionally complex alloys
107,Cr1 Fe1 Ni1 Ti0.4,BCC,CAST,BCC,,,7.4,600.3,C,25.0,2475.41,,6.5,,,212,,,,10.1557/jmr.2019.40,2019,Effects of titanium addition on microstructure and mechanical properties of CrFeNiTix (x = 0.2–0.6) compositionally complex alloys
107,Cr1 Fe1 Ni1 Ti0.5,BCC,CAST,BCC,,,7.3,709.6,C,25.0,2380.79,,,,,208,,,,10.1557/jmr.2019.40,2019,Effects of titanium addition on microstructure and mechanical properties of CrFeNiTix (x = 0.2–0.6) compositionally complex alloys
107,Cr1 Fe1 Ni1 Ti0.6,BCC,CAST,BCC,,,7.2,718.2,C,25.0,1923.15,,,,,204,,,,10.1557/jmr.2019.40,2019,Effects of titanium addition on microstructure and mechanical properties of CrFeNiTix (x = 0.2–0.6) compositionally complex alloys
108,Al1 Cr1 Cu1 Fe1 Mn1,Other,POWDER,other,,,6.5,633.0,C,25.0,1010.0,,,,,,,,,10.1557/jmr.2019.18,2019,"Materials-structure-property correlation study of spark plasma sintered AlCuCrFeMnWx (x = 0, 0.05, 0.1, 0.5) high-entropy alloys"
108,Al1 Cr1 Cu1 Fe1 Mn1 W0.05,BCC+Sec.,POWDER,other,,,6.7,680.0,C,25.0,1120.0,,,,,,,,,10.1557/jmr.2019.18,2019,"Materials-structure-property correlation study of spark plasma sintered AlCuCrFeMnWx (x = 0, 0.05, 0.1, 0.5) high-entropy alloys"
108,Al1 Cr1 Cu1 Fe1 Mn1 W0.1,BCC+Sec.,POWDER,other,,,6.8,705.0,C,25.0,1250.0,,,,,,,,,10.1557/jmr.2019.18,2019,"Materials-structure-property correlation study of spark plasma sintered AlCuCrFeMnWx (x = 0, 0.05, 0.1, 0.5) high-entropy alloys"
108,Al1 Cr1 Cu1 Fe1 Mn1 W0.5,BCC+Sec.,POWDER,other,,,7.9,780.0,C,25.0,1510.0,,,,,,,,,10.1557/jmr.2019.18,2019,"Materials-structure-property correlation study of spark plasma sintered AlCuCrFeMnWx (x = 0, 0.05, 0.1, 0.5) high-entropy alloys"
109,Co1 Cu1 Fe1 Nb0.5 Ni1,FCC+Laves,WROUGHT,other,,,8.6,,,,,,,,,,,,,10.1557/jmr.2019.36,2019,Effect of niobium addition in FeCoNiCuNbx high-entropy alloys
109,Co0.2 Cu0.2 Fe0.2 Nb1 Ni0.2,FCC+Laves,WROUGHT,other,,,8.6,,C,25.0,1498.0,,37.6,,,,,,,10.1557/jmr.2019.36,2019,Effect of niobium addition in FeCoNiCuNbx high-entropy alloys
109,Co0.133 Cu0.133 Fe0.133 Nb1 Ni0.133,FCC+Laves,WROUGHT,other,,,8.6,,C,25.0,1635.0,,31.7,,,,,,,10.1557/jmr.2019.36,2019,Effect of niobium addition in FeCoNiCuNbx high-entropy alloys
109,Co0.086 Cu0.086 Fe0.086 Nb1 Ni0.086,FCC+Laves,WROUGHT,other,,,8.6,,C,25.0,1703.0,,18.3,,,,,,,10.1557/jmr.2019.36,2019,Effect of niobium addition in FeCoNiCuNbx high-entropy alloys
109,Co0.067 Cu0.067 Fe0.067 Nb1 Ni0.067,FCC+Laves,WROUGHT,other,,,8.6,,C,25.0,1415.0,,12.6,,,,,,,10.1557/jmr.2019.36,2019,Effect of niobium addition in FeCoNiCuNbx high-entropy alloys
110,Co0.2 Cr0.2 Fe1 Mn0.6,FCC+Sec.,CAST,other,,,7.8,296.0,,,,,,,,,,,,10.1016/j.msea.2019.01.088,2019,"The effect of boron content on the microstructure and mechanical properties of Fe50-XMn30Co10Cr10BX (x = 0, 0.3, 0.6 and 1.7 wt%) multi-component alloys prepared by arc-melting"
110,B0.006 Co0.201 Cr0.201 Fe1 Mn0.604,FCC+Sec.,CAST,other,,,7.8,282.0,,,,,,,,,,,,10.1016/j.msea.2019.01.088,2019,"The effect of boron content on the microstructure and mechanical properties of Fe50-XMn30Co10Cr10BX (x = 0, 0.3, 0.6 and 1.7 wt%) multi-component alloys prepared by arc-melting"
110,B0.012 Co0.202 Cr0.202 Fe1 Mn0.607,FCC+Sec.,CAST,other,,,7.8,306.0,,,,,,,,,,,,10.1016/j.msea.2019.01.088,2019,"The effect of boron content on the microstructure and mechanical properties of Fe50-XMn30Co10Cr10BX (x = 0, 0.3, 0.6 and 1.7 wt%) multi-component alloys prepared by arc-melting"
110,B0.035 Co0.207 Cr0.207 Fe1 Mn0.621,FCC+Sec.,CAST,other,,,7.7,452.0,,,,,,,,,,,,10.1016/j.msea.2019.01.088,2019,"The effect of boron content on the microstructure and mechanical properties of Fe50-XMn30Co10Cr10BX (x = 0, 0.3, 0.6 and 1.7 wt%) multi-component alloys prepared by arc-melting"
111,Al0.186 Cr0.149 Fe1 Mn0.861 Ni0.28,,CAST,other,,,7.3,,T,25.0,159.0,535.0,,40.8 ,,,,,,10.1016/j.msea.2019.01.083,2019,The effects of carbon on the phase stability and mechanical properties of heat-treated FeNiMnCrAl high entropy alloys
111,Al0.186 Cr0.149 Fe1 Mn0.861 Ni0.28,,ANNEAL,other,,,7.3,,T,25.0,409.0,584.0,,10.5 ,,,,,,10.1016/j.msea.2019.01.083,2019,The effects of carbon on the phase stability and mechanical properties of heat-treated FeNiMnCrAl high entropy alloys
111,Al0.186 Cr0.149 Fe1 Mn0.861 Ni0.28,,CAST,other,,,7.3,,T,25.0,355.0,1174.0,,49.5 ,,,,,,10.1016/j.msea.2019.01.083,2019,The effects of carbon on the phase stability and mechanical properties of heat-treated FeNiMnCrAl high entropy alloys
111,Al0.186 Cr0.149 Fe1 Mn0.861 Ni0.28,,ANNEAL,other,,,7.3,,T,25.0,954.0,978.0,,2 ,,,,,,10.1016/j.msea.2019.01.083,2019,The effects of carbon on the phase stability and mechanical properties of heat-treated FeNiMnCrAl high entropy alloys
112,Hf1 Ti1 Zr1,Other,CAST,other,,,8.3,211.0,C,25.0,773.0,,17.0,,,,,,,10.1007/s00339-019-2484-1,2019,Effect of Sc and Y addition on the microstructure and properties of HCP-structured high-entropy alloys
112,Hf1 Sc1 Ti1 Zr1,Other,CAST,other,,,6.8,233.0,C,25.0,1001.0,,21.9,,,,,,,10.1007/s00339-019-2484-1,2019,Effect of Sc and Y addition on the microstructure and properties of HCP-structured high-entropy alloys
112,Hf1 Ti1 Y1 Zr1,Other,CAST,other,,,7.0,241.0,C,25.0,554.0,,17.7,,,,,,,10.1007/s00339-019-2484-1,2019,Effect of Sc and Y addition on the microstructure and properties of HCP-structured high-entropy alloys
112,Hf1 Sc1 Ti1 Y1 Zr1,Other,CAST,other,,,6.2,256.0,C,25.0,793.0,,15.7,,,,,,,10.1007/s00339-019-2484-1,2019,Effect of Sc and Y addition on the microstructure and properties of HCP-structured high-entropy alloys
113,Co1 Cr1 Fe1 Ga1 Ni1,FCC+BCC,CAST,other,,,7.5,,,,,,,,,,,,,10.1007/s10853-018-03196-8,2018,The effect of cooling rate on the microstructure and mechanical properties of NiCoFeCrGa high-entropy alloy
114,Al0.562 Co0.938 Cr0.312 Fe0.312 Ni1,FCC+BCC,CAST,other,,,7.1,305.4,C,25.0,1129.4,,16.7,,,,,,,10.1007/s00339-019-2506-z,2019,Enhancing the mechanical properties of casting eutectic high entropy alloys with Mo addition
114,Al0.581 Co0.968 Cr0.323 Fe0.323 Mo0.032 Ni1,FCC+BCC,CAST,other,,,7.1,357.3,C,25.0,1159.7,,18.2,,,,,,,10.1007/s00339-019-2506-z,2019,Enhancing the mechanical properties of casting eutectic high entropy alloys with Mo addition
114,Al0.6 Co1 Cr0.333 Fe0.333 Mo0.067 Ni1,FCC+BCC,CAST,other,,,7.1,362.6,C,25.0,1250.8,,14.7,,,,,,,10.1007/s00339-019-2506-z,2019,Enhancing the mechanical properties of casting eutectic high entropy alloys with Mo addition
114,Al0.6 Co1 Cr0.333 Fe0.333 Mo0.1 Ni0.967,FCC+BCC,CAST,other,,,7.2,359.7,C,25.0,1198.3,,14.5,,,,,,,10.1007/s00339-019-2506-z,2019,Enhancing the mechanical properties of casting eutectic high entropy alloys with Mo addition
116,Co1 Cr1 Fe1 Mo0.149 Ni1,FCC+Sec.,POWDER,other,,,8.3,210.0,,,,,,,,,,,,10.3390/met9030351,2019,Gradient Distribution of Microstructures and Mechanical Properties in a FeCoCrNiMo High-Entropy Alloy during Spark Plasma Sintering
117,Co1 Cr1 Cu1 Fe1 Ni1,FCC,CAST,FCC,,,8.3,,C,25.0,300.0,,50.2,,,206,,,,10.1007/s11665-018-3837-1,2019,Improvement of Microstructure and Mechanical Properties of CoCrCuFeNi High-Entropy Alloys By V Addition
117,Co1 Cr1 Cu1 Fe1 Ni1 V0.042,FCC+Sec.,CAST,other,,,8.3,,C,25.0,303.0,,50.2,,,,,,,10.1007/s11665-018-3837-1,2019,Improvement of Microstructure and Mechanical Properties of CoCrCuFeNi High-Entropy Alloys By V Addition
117,Co1 Cr1 Cu1 Fe1 Ni1 V0.087,FCC+Sec.,CAST,other,,,8.3,,C,25.0,307.0,,50.2,,,,,,,10.1007/s11665-018-3837-1,2019,Improvement of Microstructure and Mechanical Properties of CoCrCuFeNi High-Entropy Alloys By V Addition
117,Co1 Cr1 Cu1 Fe1 Ni1 V0.136,FCC+Sec.,CAST,other,,,8.3,,C,25.0,330.0,,50.2,,,,,,,10.1007/s11665-018-3837-1,2019,Improvement of Microstructure and Mechanical Properties of CoCrCuFeNi High-Entropy Alloys By V Addition
117,Co1 Cr1 Cu1 Fe1 Ni1 V0.19,FCC+Sec.,CAST,other,,,8.2,,C,25.0,616.0,,28.0,,,,,,,10.1007/s11665-018-3837-1,2019,Improvement of Microstructure and Mechanical Properties of CoCrCuFeNi High-Entropy Alloys By V Addition
118,Co1 Cr1 Cu1 Ni1 Zn1,BCC+FCC,POWDER,other,500.0,5.26,8.1,,C,25.0,,,,,,,,,,10.3390/e21020122,2019,"Phases, Microstructures and Mechanical Properties of CoCrNiCuZn High-Entropy Alloy Prepared by Mechanical Alloying and Spark Plasma Sintering"
118,Co1 Cr1 Cu1 Ni1 Zn1,BCC+FCC,POWDER,other,500.0,6.26,8.1,,C,25.0,,,,,,,,,,10.3390/e21020122,2019,"Phases, Microstructures and Mechanical Properties of CoCrNiCuZn High-Entropy Alloy Prepared by Mechanical Alloying and Spark Plasma Sintering"
118,Co1 Cr1 Cu1 Ni1 Zn1,BCC+FCC,POWDER,other,500.0,7.84,8.1,,C,25.0,,,,,,,,,,10.3390/e21020122,2019,"Phases, Microstructures and Mechanical Properties of CoCrNiCuZn High-Entropy Alloy Prepared by Mechanical Alloying and Spark Plasma Sintering"
118,Co1 Cr1 Cu1 Ni1 Zn1,FCC+FCC,POWDER,other,500.0,7.89,8.1,615.0,C,25.0,2121.0,,,,,,,,,10.3390/e21020122,2019,"Phases, Microstructures and Mechanical Properties of CoCrNiCuZn High-Entropy Alloy Prepared by Mechanical Alloying and Spark Plasma Sintering"
119,Hf1 Nb1 Ta1 Ti1 Zr1,BCC,CAST,BCC,500.0,,9.9,359.0,T,25.0,1155.0,1212.0,12.3,,59.0,107,,,,10.3390/e21020114,2019,Microstructure and Room Temperature Mechanical Properties of Different 3 and 4 Element Medium Entropy Alloys from HfNbTaTiZr System
119,Nb1 Ta1 Ti1 Zr1,BCC,CAST,BCC,500.0,,8.9,358.0,T,25.0,1144.0,1205.0,6.4,,98.0,115,,,,10.3390/e21020114,2019,Microstructure and Room Temperature Mechanical Properties of Different 3 and 4 Element Medium Entropy Alloys from HfNbTaTiZr System
119,Nb1 Ta1 Ti1,BCC,CAST,BCC,500.0,,10.0,246.0,T,25.0,620.0,683.0,18.5,,143.0,136,,,,10.3390/e21020114,2019,Microstructure and Room Temperature Mechanical Properties of Different 3 and 4 Element Medium Entropy Alloys from HfNbTaTiZr System
119,Ta1 Ti1 Zr1,BCC+Sec.,CAST,other,500.0,,9.0,485.0,T,25.0,,284.0,0.0,,157.0,,,,,10.3390/e21020114,2019,Microstructure and Room Temperature Mechanical Properties of Different 3 and 4 Element Medium Entropy Alloys from HfNbTaTiZr System
119,Nb1 Ti1 Zr1,BCC,CAST,BCC,500.0,,6.5,295.0,T,25.0,956.0,991.0,14.2,,88.0,94,,,,10.3390/e21020114,2019,Microstructure and Room Temperature Mechanical Properties of Different 3 and 4 Element Medium Entropy Alloys from HfNbTaTiZr System
119,Nb1 Ta0.667 Ti0.667 Zr0.333,BCC+Sec.,CAST,other,500.0,,9.2,294.0,T,25.0,822.0,852.0,0.33,,127.0,,,,,10.3390/e21020114,2019,Microstructure and Room Temperature Mechanical Properties of Different 3 and 4 Element Medium Entropy Alloys from HfNbTaTiZr System
119,Nb0.333 Ta0.667 Ti0.667 Zr1,BCC+Sec.,CAST,other,500.0,,8.6,489.0,T,25.0,,843.0,0.0,,93.0,,,,,10.3390/e21020114,2019,Microstructure and Room Temperature Mechanical Properties of Different 3 and 4 Element Medium Entropy Alloys from HfNbTaTiZr System
120,Ag1 Al1 Nb1 Ti1 Zn1,,ANNEAL,other,,4.75,6.7,,,,,,,,,,,,,10.1016/j.msea.2018.12.020,2019,Microstructural characterization and mechanical behavior of an AgAlNbTiZn complex composition alloy produced using powder metallurgy (P/M)
120,Ag1 Al1 Nb1 Ti1 Zn1,,ANNEAL,other,,5.78,6.7,,,,,,,,,,,,,10.1016/j.msea.2018.12.020,2019,Microstructural characterization and mechanical behavior of an AgAlNbTiZn complex composition alloy produced using powder metallurgy (P/M)
120,Ag1 Al1 Nb1 Ti1 Zn1,,ANNEAL,other,,5.79,6.7,,,,,,,,,,,,,10.1016/j.msea.2018.12.020,2019,Microstructural characterization and mechanical behavior of an AgAlNbTiZn complex composition alloy produced using powder metallurgy (P/M)
120,Ag1 Al1 Nb1 Ti1 Zn1,,ANNEAL,other,,5.51,6.7,,,,,,,,,,,,,10.1016/j.msea.2018.12.020,2019,Microstructural characterization and mechanical behavior of an AgAlNbTiZn complex composition alloy produced using powder metallurgy (P/M)
120,Ag1 Al1 Nb1 Ti1 Zn1,,ANNEAL,other,,,6.7,,,,,,,,,,,,,10.1016/j.msea.2018.12.020,2019,Microstructural characterization and mechanical behavior of an AgAlNbTiZn complex composition alloy produced using powder metallurgy (P/M)