IDENTIFIER: Reference ID,FORMULA,PROPERTY: Microstructure,PROPERTY: Processing method,PROPERTY: grain size ($\mu$m),PROPERTY: ROM Density (g/cm$^3$),PROPERTY: Exp. Density (g/cm$^3$),PROPERTY: HV,PROPERTY: Type of test,PROPERTY: Test temperature ($^\circ$C),PROPERTY: YS (MPa),PROPERTY: UTS (MPa),PROPERTY: Elongation (%),PROPERTY: Elongation plastic (%),PROPERTY: Young modulus (GPa),PROPERTY: O content (wppm),PROPERTY: N content (wppm),PROPERTY: C content (wppm),REFERENCE: doi,REFERENCE: year
110,Al1 Cr1 Cu1 Fe1 Mn1 W0.1,,POWDER,,,,705.0,C,25.0,1250.0,,,,,,,,10.1557/jmr.2019.18,2019
110,Al1 Cr1 Cu1 Fe1 Mn1 W0.5,,POWDER,,,,780.0,C,25.0,1510.0,,,,,,,,10.1557/jmr.2019.18,2019
111,Co1 Cu1 Fe1 Nb0.5 Ni1,,WROUGHT,,,,,,,,,,,,,,,10.1557/jmr.2019.36,2019
111,Co0.2 Cu0.2 Fe0.2 Nb1 Ni0.2,,WROUGHT,,,,,C,25.0,1498.0,,37.6,,,,,,10.1557/jmr.2019.36,2019
111,Co0.133 Cu0.133 Fe0.133 Nb1 Ni0.133,,WROUGHT,,,,,C,25.0,1635.0,,31.7,,,,,,10.1557/jmr.2019.36,2019
111,Co0.086 Cu0.086 Fe0.086 Nb1 Ni0.086,,WROUGHT,,,,,C,25.0,1703.0,,18.3,,,,,,10.1557/jmr.2019.36,2019
111,Co0.067 Cu0.067 Fe0.067 Nb1 Ni0.067,,WROUGHT,,,,,C,25.0,1415.0,,12.6,,,,,,10.1557/jmr.2019.36,2019
112,Co0.2 Cr0.2 Fe1 Mn0.6,,CAST,,,,296.0,,,,,,,,,,,10.1016/j.msea.2019.01.088,2019
112,B0.006 Co0.201 Cr0.201 Fe1 Mn0.604,,CAST,,,,282.0,,,,,,,,,,,10.1016/j.msea.2019.01.088,2019
112,B0.012 Co0.202 Cr0.202 Fe1 Mn0.607,,CAST,,,,306.0,,,,,,,,,,,10.1016/j.msea.2019.01.088,2019
112,B0.035 Co0.207 Cr0.207 Fe1 Mn0.621,,CAST,,,,452.0,,,,,,,,,,,10.1016/j.msea.2019.01.088,2019
113,Al0.186 Cr0.149 Fe1 Mn0.861 Ni0.28,,CAST,,,,,T,25.0,159.0,535.0,,40.8 ,,,,,10.1016/j.msea.2019.01.083,2019
113,Al0.186 Cr0.149 Fe1 Mn0.861 Ni0.28,,ANNEAL,,,,,T,25.0,409.0,584.0,,10.5 ,,,,,10.1016/j.msea.2019.01.083,2019
113,Al0.186 Cr0.149 Fe1 Mn0.861 Ni0.28,,CAST,,,,,T,25.0,355.0,1174.0,,49.5 ,,,,,10.1016/j.msea.2019.01.083,2019
113,Al0.186 Cr0.149 Fe1 Mn0.861 Ni0.28,,ANNEAL,,,,,T,25.0,954.0,978.0,,2 ,,,,,10.1016/j.msea.2019.01.083,2019
114,Hf1 Ti1 Zr1,Other,CAST,,,,211.0,C,25.0,773.0,,17.0,,,,,,10.1007/s00339-019-2484-1,
114,Hf1 Sc1 Ti1 Zr1,Other,CAST,,,,233.0,C,25.0,1001.0,,21.9,,,,,,10.1007/s00339-019-2484-1,
114,Hf1 Ti1 Y1 Zr1,Other,CAST,,,,241.0,C,25.0,554.0,,17.7,,,,,,10.1007/s00339-019-2484-1,
114,Hf1 Sc1 Ti1 Y1 Zr1,Other,CAST,,,,256.0,C,25.0,793.0,,15.7,,,,,,10.1007/s00339-019-2484-1,
115,Co1 Cr1 Fe1 Ga1 Ni1,,CAST,,,,,,,,,,,,,,,10.1007/s10853-018-03196-8,
116,Al0.562 Co0.938 Cr0.312 Fe0.312 Ni1,,CAST,,,,305.4,C,25.0,1129.4,,16.7,,,,,,10.1007/s00339-019-2506-z,
116,Al0.581 Co0.968 Cr0.323 Fe0.323 Mo0.032 Ni1,,CAST,,,,357.3,C,25.0,1159.7,,18.2,,,,,,10.1007/s00339-019-2506-z,
116,Al0.6 Co1 Cr0.333 Fe0.333 Mo0.067 Ni1,,CAST,,,,362.6,C,25.0,1250.8,,14.7,,,,,,10.1007/s00339-019-2506-z,
116,Al0.6 Co1 Cr0.333 Fe0.333 Mo0.1 Ni0.967,,CAST,,,,359.7,C,25.0,1198.3,,14.5,,,,,,10.1007/s00339-019-2506-z,
118,Co1 Cr1 Fe1 Mo0.149 Ni1,,POWDER,,,,210.0,,,,,,,,,,,10.3390/met9030351,
119,Co1 Cr1 Cu1 Fe1 Ni1,FCC,CAST,,,,,C,25.0,300.0,,50.2,,,,,,10.1007/s11665-018-3837-1,
119,Co1 Cr1 Cu1 Fe1 Ni1 V0.042,,CAST,,,,,C,25.0,303.0,,50.2,,,,,,10.1007/s11665-018-3837-1,
119,Co1 Cr1 Cu1 Fe1 Ni1 V0.087,,CAST,,,,,C,25.0,307.0,,50.2,,,,,,10.1007/s11665-018-3837-1,
119,Co1 Cr1 Cu1 Fe1 Ni1 V0.136,,CAST,,,,,C,25.0,330.0,,50.2,,,,,,10.1007/s11665-018-3837-1,
119,Co1 Cr1 Cu1 Fe1 Ni1 V0.19,,CAST,,,,,C,25.0,616.0,,28.0,,,,,,10.1007/s11665-018-3837-1,
120,Co1 Cr1 Cu1 Ni1 Zn1,FCC,POWDER,500.0,,5.26,,C,25.0,,,,,,,,,10.3390/e21020122,
120,Co1 Cr1 Cu1 Ni1 Zn1,FCC,POWDER,500.0,,6.26,,C,25.0,,,,,,,,,10.3390/e21020122,
120,Co1 Cr1 Cu1 Ni1 Zn1,FCC,POWDER,500.0,,7.84,,C,25.0,,,,,,,,,10.3390/e21020122,
120,Co1 Cr1 Cu1 Ni1 Zn1,FCC,POWDER,500.0,,7.89,615.0,C,25.0,,,,,,,,,10.3390/e21020122,
121,Hf1 Nb1 Ta1 Ti1 Zr1,BCC,CAST,500.0,,,359.0,T,25.0,1155.0,1212.0,12.3,,59.0,,,,10.3390/e21020114,
121,Nb1 Ta1 Ti1 Zr1,BCC,CAST,500.0,,,358.0,T,25.0,1144.0,1205.0,6.4,,98.0,,,,10.3390/e21020114,
121,Nb1 Ta1 Ti1,BCC,CAST,500.0,,,246.0,T,25.0,620.0,683.0,18.5,,143.0,,,,10.3390/e21020114,
121,Ta1 Ti1 Zr1,,CAST,500.0,,,485.0,T,25.0,,284.0,0.0,,157.0,,,,10.3390/e21020114,
121,Nb1 Ti1 Zr1,BCC,CAST,500.0,,,295.0,T,25.0,956.0,991.0,14.2,,88.0,,,,10.3390/e21020114,
121,Nb1 Ta0.667 Ti0.667 Zr0.333,,CAST,500.0,,,294.0,T,25.0,822.0,852.0,0.33,,127.0,,,,10.3390/e21020114,
121,Nb0.333 Ta0.667 Ti0.667 Zr1,,CAST,500.0,,,489.0,T,25.0,,843.0,0.0,,93.0,,,,10.3390/e21020114,
122,Ag1 Al1 Nb1 Ti1 Zn1,,ANNEAL,,,4.75,,,,,,,,,,,,10.1016/j.msea.2018.12.020,2018
122,Ag1 Al1 Nb1 Ti1 Zn1,,ANNEAL,,,5.78,,,,,,,,,,,,10.1016/j.msea.2018.12.020,2018
122,Ag1 Al1 Nb1 Ti1 Zn1,,ANNEAL,,,5.79,,,,,,,,,,,,10.1016/j.msea.2018.12.020,2018
122,Ag1 Al1 Nb1 Ti1 Zn1,,ANNEAL,,,5.51,,,,,,,,,,,,10.1016/j.msea.2018.12.020,2018
122,Ag1 Al1 Nb1 Ti1 Zn1,,ANNEAL,,,,,,,,,,,,,,,10.1016/j.msea.2018.12.020,2018
123,Al0.774 Fe1 Mn0.903 Ni0.484,,CAST,,,,310.0,,,,,,,,,,,10.1155/2019/2157592,
123,Al0.774 Fe1 Mn0.903 Ni0.484 Ti0.026,,CAST,,,,330.0,,,,,,,,,,,10.1155/2019/2157592,
123,Al0.774 Fe1 Mn0.903 Ni0.484 Ti0.097,,CAST,,,,500.0,,,,,,,,,,,10.1155/2019/2157592,
123,Al0.774 Fe1 Mn0.903 Ni0.484,,ANNEAL,,,,340.0,,,,,,,,,,,10.1155/2019/2157592,
123,Al0.774 Fe1 Mn0.903 Ni0.484 Ti0.026,,ANNEAL,,,,410.0,,,,,,,,,,,10.1155/2019/2157592,
123,Al0.774 Fe1 Mn0.903 Ni0.484 Ti0.097,,ANNEAL,,,,495.0,,,,,,,,,,,10.1155/2019/2157592,
123,Al0.774 Fe1 Mn0.903 Ni0.484,,ANNEAL,,,,330.0,,,,,,,,,,,10.1155/2019/2157592,
123,Al0.774 Fe1 Mn0.903 Ni0.484 Ti0.026,,ANNEAL,,,,330.0,,,,,,,,,,,10.1155/2019/2157592,
123,Al0.774 Fe1 Mn0.903 Ni0.484 Ti0.097,,ANNEAL,,,,490.0,,,,,,,,,,,10.1155/2019/2157592,
124,Al1 C1 Co1 Cr1 Fe1 Ni1,,POWDER,,,,,,,,,,,,,,,10.1080/00325899.2019.1576389,2019
125,Cr1 Cu1 Fe1 Ni1 Ti1,,CAST,,,,,,,,,,,,,,,10.1007/s11106-019-00012-z,
125,Cr1 Cu1 Fe1 Ni1 Ti1,,WROUGHT,,,,,,,,,,,,,,,10.1007/s11106-019-00012-z,
126,Co1 Cr1 Fe1 Mn1 Ni1,Other,POWDER,0.03,,7.753,435.0,C,25.0,1100.0,,47.0,,,,,,10.1080/00325899.2018.1554834,2018
128,Al0.5 Cr1 Cu1 Fe1 Ni1,FCC,CAST,,,,226.0,,,,,,,,,,,10.1007/s11665-018-3822-8,
128,Al0.5 Cr1 Cu1 Fe1 Ni1,FCC,WROUGHT,,,,287.0,,,,,,,,,,,10.1007/s11665-018-3822-8,
129,Hf1 Mo1 Nb1 Ta1 Ti1 Zr1,BCC,CAST,,,,,C,25.0,1512.0,,12.0,,,,,,10.3390/e21010015,
129,Hf1 Nb1 Ta1 Ti1 Zr1,BCC,CAST,,,,,C,25.0,929.0,,50.0,,,,,,10.3390/e21010015,
129,Hf1 Mo1 Ta1 Ti1 Zr1,BCC,CAST,,,,,C,25.0,1600.0,,4.0,,,,,,10.3390/e21010015,
129,Hf1 Mo1 Nb1 Ti1 Zr1,BCC,CAST,,,,,C,25.0,1351.0,,20.0,,,,,,10.3390/e21010015,
129,Hf1 Mo1 Nb1 Ta1 Zr1,BCC,CAST,,,,,C,25.0,1524.0,,16.0,,,,,,10.3390/e21010015,
129,Hf1 Mo1 Nb1 Ta1 Ti1,BCC,CAST,,,,,C,25.0,1369.0,,27.0,,,,,,10.3390/e21010015,
129,Hf1 Mo1 Nb1 Ta1 Ti1 Zr1,BCC,CAST,,,,,C,800.0,1007.0,,,,,,,,10.3390/e21010015,
129,Hf1 Nb1 Ta1 Ti1 Zr1,BCC,CAST,,,,,C,800.0,535.0,,,,,,,,10.3390/e21010015,
129,Hf1 Mo1 Ta1 Ti1 Zr1,BCC,CAST,,,,,C,800.0,1045.0,,,,,,,,10.3390/e21010015,
129,Hf1 Mo1 Nb1 Ti1 Zr1,BCC,CAST,,,,,C,800.0,829.0,,,,,,,,10.3390/e21010015,
129,Hf1 Mo1 Nb1 Ta1 Zr1,BCC,CAST,,,,,C,800.0,1005.0,,,,,,,,10.3390/e21010015,
129,Hf1 Mo1 Nb1 Ta1 Ti1,BCC,CAST,,,,,C,800.0,822.0,,,,,,,,10.3390/e21010015,
129,Hf1 Mo1 Nb1 Ta1 Ti1 Zr1,BCC,CAST,,,,,C,1000.0,814.0,,,,,,,,10.3390/e21010015,
129,Hf1 Nb1 Ta1 Ti1 Zr1,BCC,CAST,,,,,C,1000.0,295.0,,,,,,,,10.3390/e21010015,
129,Hf1 Mo1 Ta1 Ti1 Zr1,BCC,CAST,,,,,C,1000.0,855.0,,,,,,,,10.3390/e21010015,
129,Hf1 Mo1 Nb1 Ti1 Zr1,BCC,CAST,,,,,C,1000.0,721.0,,,,,,,,10.3390/e21010015,
129,Hf1 Mo1 Nb1 Ta1 Zr1,BCC,CAST,,,,,C,1000.0,927.0,,,,,,,,10.3390/e21010015,
129,Hf1 Mo1 Nb1 Ta1 Ti1,BCC,CAST,,,,,C,1000.0,778.0,,,,,,,,10.3390/e21010015,
129,Hf1 Mo1 Nb1 Ta1 Ti1 Zr1,BCC,CAST,,,,,C,1200.0,556.0,,,,,,,,10.3390/e21010015,
129,Hf1 Nb1 Ta1 Ti1 Zr1,BCC,CAST,,,,,C,1200.0,92.0,,,,,,,,10.3390/e21010015,
129,Hf1 Mo1 Ta1 Ti1 Zr1,BCC,CAST,,,,,C,1200.0,404.0,,,,,,,,10.3390/e21010015,
129,Hf1 Mo1 Nb1 Ti1 Zr1,BCC,CAST,,,,,C,1200.0,301.0,,,,,,,,10.3390/e21010015,
129,Hf1 Mo1 Nb1 Ta1 Zr1,BCC,CAST,,,,,C,1200.0,694.0,,,,,,,,10.3390/e21010015,
129,Hf1 Mo1 Nb1 Ta1 Ti1,BCC,CAST,,,,,C,1200.0,699.0,,,,,,,,10.3390/e21010015,
129,Hf1 Mo1 Nb1 Ta1 Zr1,BCC,CAST,,,,,C,1400.0,278.0,,,,,,,,10.3390/e21010015,
129,Hf1 Mo1 Nb1 Ta1 Ti1,BCC,CAST,,,,,C,1400.0,367.0,,,,,,,,10.3390/e21010015,
130,Co1 Cr1 Fe1 Ni1,FCC,POWDER,0.0276,,,,,,,,,,,,,,10.3390/coatings9010016,
130,C0.111 Co1 Cr1 Fe1 Ni1 W0.111,FCC,POWDER,0.0189,,7.24 ,475.0,,,,,,,,,,,10.3390/coatings9010016,
130,C0.429 Co1 Cr1 Fe1 Ni1 W0.429,FCC,POWDER,0.0182,,8.39 ,531.0,,,,,,,,,,,10.3390/coatings9010016,
131,Al0.267 Co1 Cr0.667 Fe0.667 Ni0.667 Ti0.2,,POWDER,,,,515.0,C,25.0,2012.0,,,17.52 ,,,,,10.5755/j01.ms.25.3.19452,
132,Hf1 Nb1 Ta1 Ti1 Zr1,BCC,CAST,,,,,T,25.0,1438.0,1218.0,5.0,,91.5,,,,10.1007/s11661-018-4646-8,
132,Hf1 Nb1 Ta1 Ti1 Zr1,BCC,OTHER,,,,,T,25.0,1159.0,1127.0,4.7,,99.2,,,,10.1007/s11661-018-4646-8,
132,Hf1 Nb1 Ta1 Ti1 Zr1,BCC,OTHER,,,,,T,25.0,1134.0,1134.0,7.6,,109.1,,,,10.1007/s11661-018-4646-8,
132,Hf1 Nb1 Ta1 Ti1 Zr1,BCC,OTHER,,,,,T,25.0,1094.0,1066.0,6.0,,105.3,,,,10.1007/s11661-018-4646-8,
132,Hf1 Nb1 Ta1 Ti1 Zr1,BCC,OTHER,,,,,T,25.0,1071.0,964.0,4.6,,91.6,,,,10.1007/s11661-018-4646-8,
132,Hf1 Nb1 Ta1 Ti1 Zr1,BCC,OTHER,24.4,,,,T,25.0,1107.0,977.0,13.9,,92.6,,,,10.1007/s11661-018-4646-8,
132,Hf1 Nb1 Ta1 Ti1 Zr1,BCC,OTHER,31.3,,,,T,25.0,1115.0,830.0,18.5,,92.6,,,,10.1007/s11661-018-4646-8,
132,Hf1 Nb1 Ta1 Ti1 Zr1,BCC,OTHER,38.4,,,,T,25.0,1114.0,935.0,12.2,,101.3,,,,10.1007/s11661-018-4646-8,
132,Hf1 Nb1 Ta1 Ti1 Zr1,BCC,OTHER,50.1,,,,,,,,,,,,,,10.1007/s11661-018-4646-8,
132,Hf1 Nb1 Ta1 Ti1 Zr1,BCC,OTHER,21.9,,,,,,,,,,,,,,10.1007/s11661-018-4646-8,
132,Hf1 Nb1 Ta1 Ti1 Zr1,BCC,OTHER,75.5,,,,,,,,,,,,,,10.1007/s11661-018-4646-8,
133,Al1 Nb1 Ti1 Zr1,B2,CAST,250.0,,5.85,422.0,C,25.0,1509.0,,8.6,,,,,,10.1080/02670836.2018.1446267,2018
133,Al1 Nb1 Ti1 Zr1,,ANNEAL,,,,418.0,C,25.0,1579.0,,17.8,,,,,,10.1080/02670836.2018.1446267,2018
133,Hf1 Mo1 Ta1 Ti1 Zr1,,,,,10.24,541.6,C,25.0,1600.0,,4.0,,,,,,10.1080/02670836.2018.1446267,2018
133,Hf1 Nb1 Ta1 Ti1 Zr1,,,,,9.94,390.1,C,25.0,929.0,,50.0,,,,,,10.1080/02670836.2018.1446267,2018
133,Al1 Nb1 Ti1 V1,,,,,5.59,440.0,C,25.0,1020.0,,8.5,,,,,,10.1080/02670836.2018.1446267,2018
133,Al1 Nb1 Ti1 V1 Zr0.5,,,,,5.64,,C,25.0,1480.0,,50.0,,,,,,10.1080/02670836.2018.1446267,2018
133,Al1 Nb1 Ti1 Zr1,,,,,5.79,539.6,C,25.0,1080.0,,5.9,,,,,,10.1080/02670836.2018.1446267,2018
133,Hf1 Nb1 Ti1 Zr1,,,,,,,C,25.0,879.0,,16.5,,,,,,10.1080/02670836.2018.1446267,2018
133,Al0.667 Nb1 Ta0.333 Ti1 Zr0.333,,,,,6.8,407.9,C,25.0,1280.0,,4.8,,,,,,10.1080/02670836.2018.1446267,2018
133,Nb1 Ti1 V1 Zr1,,,,,6.52,335.0,C,25.0,1105.0,,50.0,,,,,,10.1080/02670836.2018.1446267,2018
133,Cr1 Nb1 Ti1 Zr1,,,,,6.67,418.0,C,25.0,1260.0,,6.0,,,,,,10.1080/02670836.2018.1446267,2018