IDENTIFIER: Reference ID,FORMULA,PROPERTY: Microstructure,PROPERTY: Processing method,PROPERTY: BCC/FCC/other,PROPERTY: grain size ($\mu$m),PROPERTY: Exp. Density (g/cm$^3$),PROPERTY: Calculated Density (g/cm$^3$),PROPERTY: HV,PROPERTY: Type of test,PROPERTY: Test temperature ($^\circ$C),PROPERTY: YS (MPa),PROPERTY: UTS (MPa),PROPERTY: Elongation (%),PROPERTY: Elongation plastic (%),PROPERTY: Exp. Young modulus (GPa),PROPERTY: Calculated Young modulus (GPa),PROPERTY: O content (wppm),PROPERTY: N content (wppm),PROPERTY: C content (wppm),REFERENCE: doi,REFERENCE: year,REFERENCE: title
208,Co1 Cr1 Fe1 Ni1,FCC,WROUGHT,FCC,0.5529999999999999,,8.2,,T,25.0,494.0,732.0,51.0,,210.0,226,,,,10.1016/j.actamat.2019.04.017,2019,Effect of elemental combination on friction stress and Hall-Petch relationship in face-centered cubic high / medium entropy alloys
208,Co1 Cr1 Fe1 Ni1,FCC,WROUGHT,FCC,0.72,,8.2,,T,25.0,448.0,672.0,65.0,,210.0,226,,,,10.1016/j.actamat.2019.04.017,2019,Effect of elemental combination on friction stress and Hall-Petch relationship in face-centered cubic high / medium entropy alloys
208,Co1 Cr1 Fe1 Ni1,FCC,WROUGHT,FCC,3.4,,8.2,,T,25.0,273.0,567.0,85.0,,210.0,226,,,,10.1016/j.actamat.2019.04.017,2019,Effect of elemental combination on friction stress and Hall-Petch relationship in face-centered cubic high / medium entropy alloys
208,Co1 Cr1 Fe1 Ni1,FCC,WROUGHT,FCC,32.2,,8.2,,T,25.0,172.0,504.0,105.0,,210.0,226,,,,10.1016/j.actamat.2019.04.017,2019,Effect of elemental combination on friction stress and Hall-Petch relationship in face-centered cubic high / medium entropy alloys
208,Co0.25 Cr1 Ni1,FCC,WROUGHT,FCC,0.49700000000000005,,8.1,,T,25.0,518.0,744.0,36.0,,240.0,238,,,,10.1016/j.actamat.2019.04.017,2019,Effect of elemental combination on friction stress and Hall-Petch relationship in face-centered cubic high / medium entropy alloys
208,Co0.25 Cr1 Ni1,FCC,WROUGHT,FCC,0.848,,8.1,,T,25.0,462.0,703.0,46.0,,240.0,238,,,,10.1016/j.actamat.2019.04.017,2019,Effect of elemental combination on friction stress and Hall-Petch relationship in face-centered cubic high / medium entropy alloys
208,Co0.25 Cr1 Ni1,FCC,WROUGHT,FCC,1.78,,8.1,,T,25.0,395.0,644.0,58.0,,240.0,238,,,,10.1016/j.actamat.2019.04.017,2019,Effect of elemental combination on friction stress and Hall-Petch relationship in face-centered cubic high / medium entropy alloys
208,Co0.25 Cr1 Ni1,FCC,WROUGHT,FCC,1.98,,8.1,,T,25.0,356.0,588.0,64.0,,240.0,238,,,,10.1016/j.actamat.2019.04.017,2019,Effect of elemental combination on friction stress and Hall-Petch relationship in face-centered cubic high / medium entropy alloys
209,Al1 Co1 Ni1 Ti1,BCC+B2,POWDER,other,,,5.7,672.0,C,25.0,,,,,,,,,,10.1016/j.jallcom.2019.02.083,2019,Microstructure and mechanical properties of Ti-Al-Ni-Co-Fe based high entropy alloys prepared by powder metallurgy route
209,Al1 Fe1 Ni1 Ti1,BCC+B2,POWDER,other,,,5.5,666.0,C,25.0,,,,,,,,,,10.1016/j.jallcom.2019.02.083,2019,Microstructure and mechanical properties of Ti-Al-Ni-Co-Fe based high entropy alloys prepared by powder metallurgy route
209,Al1 Co1 Fe1 Ni1 Ti1,BCC+B2,POWDER,other,,,6.1,667.0,C,25.0,,,,,,,,,,10.1016/j.jallcom.2019.02.083,2019,Microstructure and mechanical properties of Ti-Al-Ni-Co-Fe based high entropy alloys prepared by powder metallurgy route
210,Al1 Cr1 Cu1 Fe1 Ni1,FCC+BCC+B2,POWDER,other,,,6.8,434.0,,,,,,,,,,,,10.1016/j.jallcom.2019.01.341,2019,Structure formation and mechanical properties of the high-entropy AlCuNiFeCr alloy prepared by mechanical alloying and spark plasma sintering
210,Al1 Cr1 Cu1 Fe1 Ni1,FCC+BCC+B2,POWDER,other,,,6.8,666.0,,,,,,,,,,,,10.1016/j.jallcom.2019.01.341,2019,Structure formation and mechanical properties of the high-entropy AlCuNiFeCr alloy prepared by mechanical alloying and spark plasma sintering
210,Al1 Cr1 Cu1 Fe1 Ni1,FCC+BCC+B2,POWDER,other,,,6.8,761.0,,,,,,,,,,,,10.1016/j.jallcom.2019.01.341,2019,Structure formation and mechanical properties of the high-entropy AlCuNiFeCr alloy prepared by mechanical alloying and spark plasma sintering
210,Al1 Cr1 Cu1 Fe1 Ni1,FCC+BCC+B2,POWDER,other,,,6.8,747.0,,,,,,,,,,,,10.1016/j.jallcom.2019.01.341,2019,Structure formation and mechanical properties of the high-entropy AlCuNiFeCr alloy prepared by mechanical alloying and spark plasma sintering
210,Al1 Cr1 Cu1 Fe1 Ni1,FCC+BCC+B2,POWDER,other,,,6.8,,C,20.0,1511.0,,5.0,,,,,,,10.1016/j.jallcom.2019.01.341,2019,Structure formation and mechanical properties of the high-entropy AlCuNiFeCr alloy prepared by mechanical alloying and spark plasma sintering
210,Al1 Cr1 Cu1 Fe1 Ni1,FCC+BCC+B2,POWDER,other,,,6.8,,C,400.0,1366.0,,17.0,,,,,,,10.1016/j.jallcom.2019.01.341,2019,Structure formation and mechanical properties of the high-entropy AlCuNiFeCr alloy prepared by mechanical alloying and spark plasma sintering
210,Al1 Cr1 Cu1 Fe1 Ni1,FCC+BCC+B2,POWDER,other,,,6.8,,C,600.0,410.0,,35.0,,,,,,,10.1016/j.jallcom.2019.01.341,2019,Structure formation and mechanical properties of the high-entropy AlCuNiFeCr alloy prepared by mechanical alloying and spark plasma sintering
210,Al1 Cr1 Cu1 Fe1 Ni1,FCC+BCC+B2,POWDER,other,,,6.8,,C,800.0,48.0,,35.0,,,,,,,10.1016/j.jallcom.2019.01.341,2019,Structure formation and mechanical properties of the high-entropy AlCuNiFeCr alloy prepared by mechanical alloying and spark plasma sintering
211,Co1 Cr1 Fe1 Mn1 Ni1,FCC,CAST,FCC,,,8.0,,T,25.0,210.0,,57.0,,,220,,,,10.1016/j.msea.2019.04.025,2019,Regulating the strength and ductility of a cold rolled FeCrCoMnNi high-entropy alloy via annealing treatment
211,Co1 Cr1 Fe1 Mn1 Ni1,FCC,WROUGHT,FCC,,,8.0,,T,25.0,1150.0,,6.0,,,220,,,,10.1016/j.msea.2019.04.025,2019,Regulating the strength and ductility of a cold rolled FeCrCoMnNi high-entropy alloy via annealing treatment
211,Co1 Cr1 Fe1 Mn1 Ni1,FCC,WROUGHT,FCC,,,8.0,,T,25.0,1300.0,,2.0,,,220,,,,10.1016/j.msea.2019.04.025,2019,Regulating the strength and ductility of a cold rolled FeCrCoMnNi high-entropy alloy via annealing treatment
211,Co1 Cr1 Fe1 Mn1 Ni1,FCC,WROUGHT,FCC,4.0,,8.0,,T,25.0,1050.0,,8.0,,,220,,,,10.1016/j.msea.2019.04.025,2019,Regulating the strength and ductility of a cold rolled FeCrCoMnNi high-entropy alloy via annealing treatment
211,Co1 Cr1 Fe1 Mn1 Ni1,FCC,WROUGHT,FCC,8.0,,8.0,,T,25.0,560.0,,49.0,,,220,,,,10.1016/j.msea.2019.04.025,2019,Regulating the strength and ductility of a cold rolled FeCrCoMnNi high-entropy alloy via annealing treatment
211,Co1 Cr1 Fe1 Mn1 Ni1,FCC,WROUGHT,FCC,8.0,,8.0,,T,25.0,520.0,,47.0,,,220,,,,10.1016/j.msea.2019.04.025,2019,Regulating the strength and ductility of a cold rolled FeCrCoMnNi high-entropy alloy via annealing treatment
211,Co1 Cr1 Fe1 Mn1 Ni1,FCC,WROUGHT,FCC,10.0,,8.0,,T,25.0,320.0,,59.0,,,220,,,,10.1016/j.msea.2019.04.025,2019,Regulating the strength and ductility of a cold rolled FeCrCoMnNi high-entropy alloy via annealing treatment
211,Co1 Cr1 Fe1 Mn1 Ni1,FCC,WROUGHT,FCC,20.0,,8.0,,T,25.0,280.0,,62.0,,,220,,,,10.1016/j.msea.2019.04.025,2019,Regulating the strength and ductility of a cold rolled FeCrCoMnNi high-entropy alloy via annealing treatment
212,Co0.5 Fe0.5 Mo0.1 Ni1 V0.25,FCC,CAST,FCC,,,8.4,,T,-196.0,419.0,,,34.6,,202,,,,10.1016/j.scriptamat.2019.02.038,2019,A promising CoFeNi2V0.5Mo0.2 high entropy alloy with exceptional ductility
212,Co0.5 Fe0.5 Mo0.1 Ni1 V0.25,FCC,CAST,FCC,,,8.4,,T,-70.0,350.0,,,28.8,,202,,,,10.1016/j.scriptamat.2019.02.038,2019,A promising CoFeNi2V0.5Mo0.2 high entropy alloy with exceptional ductility
212,Co0.5 Fe0.5 Mo0.1 Ni1 V0.25,FCC,CAST,FCC,,,8.4,,T,20.0,252.0,,,82.1,,202,,,,10.1016/j.scriptamat.2019.02.038,2019,A promising CoFeNi2V0.5Mo0.2 high entropy alloy with exceptional ductility
212,Co0.5 Fe0.5 Mo0.1 Ni1 V0.25,FCC,CAST,FCC,,,8.4,,T,600.0,214.0,,,189.2,,202,,,,10.1016/j.scriptamat.2019.02.038,2019,A promising CoFeNi2V0.5Mo0.2 high entropy alloy with exceptional ductility
212,Co0.5 Fe0.5 Mo0.1 Ni1 V0.25,FCC,CAST,FCC,,,8.4,,T,700.0,212.0,,,154.3,,202,,,,10.1016/j.scriptamat.2019.02.038,2019,A promising CoFeNi2V0.5Mo0.2 high entropy alloy with exceptional ductility
212,Co0.5 Fe0.5 Mo0.1 Ni1 V0.25,FCC,CAST,FCC,,,8.4,,T,800.0,187.0,,,119.5,,202,,,,10.1016/j.scriptamat.2019.02.038,2019,A promising CoFeNi2V0.5Mo0.2 high entropy alloy with exceptional ductility
213,Al0.3 Co1 Cr1 Fe1 Ni1,FCC,CAST,FCC,,,7.6,132.0,C,300.0,,,,,,210,,,,10.1088/2053-1591/ab0597,2019,Effect of cooling rate on microstructure and mechanical properties of Al0.3CoCrFeNi high-entropy alloy
213,Al0.3 Co1 Cr1 Fe1 Ni1,FCC,CAST,FCC,,,7.6,147.0,C,340.0,,,,,,210,,,,10.1088/2053-1591/ab0597,2019,Effect of cooling rate on microstructure and mechanical properties of Al0.3CoCrFeNi high-entropy alloy
213,Al0.3 Co1 Cr1 Fe1 Ni1,FCC,CAST,FCC,,,7.6,165.0,C,430.0,,,,,,210,,,,10.1088/2053-1591/ab0597,2019,Effect of cooling rate on microstructure and mechanical properties of Al0.3CoCrFeNi high-entropy alloy
215,Al1 Co1 Cr1 Fe1 Ni1,B2+BCC,CAST,other,204.0,,6.7,519.0,C,25.0,1631.0,,16.0,,,,,,,10.1016/j.matchar.2019.03.006,2019,The strengthening effects of relatively lightweight AlCoCrFeNi high entropy alloy
215,Al1 Co1 Cr1 Fe1 Ni1,B2+BCC,CAST,other,185.0,,6.7,493.0,C,25.0,1209.0,,23.0,,,,,,,10.1016/j.matchar.2019.03.006,2019,The strengthening effects of relatively lightweight AlCoCrFeNi high entropy alloy
216,Co0.318 Cr0.227 Fe1 Mo0.091 Ni0.182,FCC+Sec.,WROUGHT,other,4.4,,8.2,,T,25.0,443.0,840.0,61.6,,,,,,,10.1016/j.jallcom.2018.12.040,2019,Effect of μ-precipitates on the microstructure and mechanical properties of non-equiatomic CoCrFeNiMo medium-entropy alloys
216,Co0.327 Cr0.227 Fe1 Mo0.136 Ni0.127,FCC+Sec.,WROUGHT,other,3.2,,8.2,,T,25.0,711.0,1096.0,38.3,,,,,,,10.1016/j.jallcom.2018.12.040,2019,Effect of μ-precipitates on the microstructure and mechanical properties of non-equiatomic CoCrFeNiMo medium-entropy alloys
216,Co0.318 Cr0.227 Fe1 Mo0.091 Ni0.182,FCC+Sec.,WROUGHT,other,26.3,,8.2,,T,25.0,301.0,718.0,77.5,,,,,,,10.1016/j.jallcom.2018.12.040,2019,Effect of μ-precipitates on the microstructure and mechanical properties of non-equiatomic CoCrFeNiMo medium-entropy alloys
216,Co0.327 Cr0.227 Fe1 Mo0.136 Ni0.127,FCC+Sec.,WROUGHT,other,4.8,,8.2,,T,25.0,684.0,1078.0,48.1,,,,,,,10.1016/j.jallcom.2018.12.040,2019,Effect of μ-precipitates on the microstructure and mechanical properties of non-equiatomic CoCrFeNiMo medium-entropy alloys
216,Co0.318 Cr0.227 Fe1 Mo0.091 Ni0.182,FCC+Sec.,WROUGHT,other,70.1,,8.2,,T,25.0,261.0,673.0,86.6,,,,,,,10.1016/j.jallcom.2018.12.040,2019,Effect of μ-precipitates on the microstructure and mechanical properties of non-equiatomic CoCrFeNiMo medium-entropy alloys
216,Co0.327 Cr0.227 Fe1 Mo0.136 Ni0.127,FCC+Sec.,WROUGHT,other,5.4,,8.2,,T,25.0,506.0,933.0,59.3,,,,,,,10.1016/j.jallcom.2018.12.040,2019,Effect of μ-precipitates on the microstructure and mechanical properties of non-equiatomic CoCrFeNiMo medium-entropy alloys
216,Co0.318 Cr0.227 Fe1 Mo0.091 Ni0.182,FCC+Sec.,WROUGHT,other,136.5,,8.2,,T,25.0,231.0,638.0,87.2,,,,,,,10.1016/j.jallcom.2018.12.040,2019,Effect of μ-precipitates on the microstructure and mechanical properties of non-equiatomic CoCrFeNiMo medium-entropy alloys
216,Co0.327 Cr0.227 Fe1 Mo0.136 Ni0.127,FCC+Sec.,WROUGHT,other,120.6,,8.2,,T,25.0,296.0,693.0,63.2,,,,,,,10.1016/j.jallcom.2018.12.040,2019,Effect of μ-precipitates on the microstructure and mechanical properties of non-equiatomic CoCrFeNiMo medium-entropy alloys
217,Co1 Cr1 Fe1 Mn1 Ni1,FCC,ANNEAL,FCC,300.0,,8.0,,,,,,,,,220,,,,10.1016/j.jallcom.2018.11.181,2019,Microstructure and mechanical properties of a CoCrFeMnNi high entropy alloy processed by milling and spark plasma sintering
217,Co1 Cr1 Fe1 Mn1 Ni1,FCC,POWDER,FCC,4.2,,8.0,,,,,,,,,220,,,,10.1016/j.jallcom.2018.11.181,2019,Microstructure and mechanical properties of a CoCrFeMnNi high entropy alloy processed by milling and spark plasma sintering
217,Co1 Cr1 Fe1 Mn1 Ni1,FCC,POWDER,FCC,1.3,,8.0,,,,,,,,,220,,,,10.1016/j.jallcom.2018.11.181,2019,Microstructure and mechanical properties of a CoCrFeMnNi high entropy alloy processed by milling and spark plasma sintering
218,Cr1 Cu1 Fe1 Mn1 Ni1,FCC+BCC,CAST,other,,,8.1,,T,25.0,615.0,950.0,14.0,,,,,,,10.1007/s11665-019-04003-4,2019,Microstructure and Mechanical Properties of a Multiphase FeCrCuMnNi High-Entropy Alloy
218,Cr1 Cu1 Fe1 Mn1 Ni1,FCC+BCC,ANNEAL,other,,,8.1,,,,,,,,,,,,,10.1007/s11665-019-04003-4,2019,Microstructure and Mechanical Properties of a Multiphase FeCrCuMnNi High-Entropy Alloy
218,Cr1 Cu1 Fe1 Mn1 Ni1,FCC+BCC+Sec.,ANNEAL,other,,,8.1,,,,,,,,,,,,,10.1007/s11665-019-04003-4,2019,Microstructure and Mechanical Properties of a Multiphase FeCrCuMnNi High-Entropy Alloy
219,Mo1 Nb1 Re0.5 W1,BCC,CAST,BCC,,,13.7,473.0,C,25.0,896.0,,10.4,7.08,,298,,,,10.1016/j.jallcom.2018.11.111,2019,"Microstructure evolution, mechanical properties and strengthening mechanism of refractory high-entropy alloy matrix composites with addition of TaC"
219,C0.2 Mo1 Nb1 Re0.5 Ta0.2 W1,BCC+Sec.,CAST,other,,,13.5,510.0,C,25.0,1074.0,,12.1,8.33,,,,,,10.1016/j.jallcom.2018.11.111,2019,"Microstructure evolution, mechanical properties and strengthening mechanism of refractory high-entropy alloy matrix composites with addition of TaC"
219,C0.4 Mo1 Nb1 Re0.5 Ta0.4 W1,BCC+Sec.,CAST,other,,,13.4,558.0,C,25.0,1144.0,,12.7,8.81,,,,,,10.1016/j.jallcom.2018.11.111,2019,"Microstructure evolution, mechanical properties and strengthening mechanism of refractory high-entropy alloy matrix composites with addition of TaC"
219,C0.5 Mo1 Nb1 Re0.5 Ta0.5 W1,BCC+Sec.,CAST,other,,,13.3,583.0,C,25.0,1202.0,,14.2,10.25,,,,,,10.1016/j.jallcom.2018.11.111,2019,"Microstructure evolution, mechanical properties and strengthening mechanism of refractory high-entropy alloy matrix composites with addition of TaC"
219,C0.6 Mo1 Nb1 Re0.5 Ta0.6 W1,BCC+Sec.,CAST,other,,,13.3,615.0,C,25.0,1241.0,,13.8,9.64,,,,,,10.1016/j.jallcom.2018.11.111,2019,"Microstructure evolution, mechanical properties and strengthening mechanism of refractory high-entropy alloy matrix composites with addition of TaC"
220,Al0.278 Co0.694 Cr0.222 Fe0.417 Ni1 Ti0.167,FCC,ANNEAL,FCC,,,7.4,,T,23.0,520.0,696.0,49.0,,,185,,,,10.3390/e21020169,2019,Microstructure and Mechanical Properties of Precipitate Strengthened High Entropy Alloy Al10Co25Cr8Fe15Ni36Ti6 with Additions of Hafnium and Molybdenum
220,Al0.278 Co0.694 Cr0.222 Fe0.417 Ni1 Ti0.167,FCC,ANNEAL,FCC,,,7.4,,T,600.0,470.0,561.0,11.0,,,185,,,,10.3390/e21020169,2019,Microstructure and Mechanical Properties of Precipitate Strengthened High Entropy Alloy Al10Co25Cr8Fe15Ni36Ti6 with Additions of Hafnium and Molybdenum
220,Al0.278 Co0.694 Cr0.222 Fe0.417 Ni1 Ti0.167,FCC,ANNEAL,FCC,,,7.4,,T,700.0,461.0,560.0,9.0,,,185,,,,10.3390/e21020169,2019,Microstructure and Mechanical Properties of Precipitate Strengthened High Entropy Alloy Al10Co25Cr8Fe15Ni36Ti6 with Additions of Hafnium and Molybdenum
220,Al0.278 Co0.694 Cr0.222 Fe0.417 Ni1 Ti0.167,FCC,ANNEAL,FCC,,,7.4,,T,800.0,445.0,536.0,6.0,,,185,,,,10.3390/e21020169,2019,Microstructure and Mechanical Properties of Precipitate Strengthened High Entropy Alloy Al10Co25Cr8Fe15Ni36Ti6 with Additions of Hafnium and Molybdenum
220,Al0.278 Co0.694 Cr0.222 Fe0.417 Ni1 Ti0.167,FCC,ANNEAL,FCC,,,7.4,,T,900.0,219.0,312.0,8.0,,,185,,,,10.3390/e21020169,2019,Microstructure and Mechanical Properties of Precipitate Strengthened High Entropy Alloy Al10Co25Cr8Fe15Ni36Ti6 with Additions of Hafnium and Molybdenum
220,Al0.278 Co0.694 Cr0.222 Fe0.417 Ni1 Ti0.167,FCC,ANNEAL,FCC,,,7.4,,T,23.0,627.0,1197.0,27.0,,,185,,,,10.3390/e21020169,2019,Microstructure and Mechanical Properties of Precipitate Strengthened High Entropy Alloy Al10Co25Cr8Fe15Ni36Ti6 with Additions of Hafnium and Molybdenum
220,Al0.278 Co0.694 Cr0.222 Fe0.417 Ni1 Ti0.167,FCC,ANNEAL,FCC,,,7.4,,T,600.0,594.0,1006.0,12.0,,,185,,,,10.3390/e21020169,2019,Microstructure and Mechanical Properties of Precipitate Strengthened High Entropy Alloy Al10Co25Cr8Fe15Ni36Ti6 with Additions of Hafnium and Molybdenum
220,Al0.278 Co0.694 Cr0.222 Fe0.417 Ni1 Ti0.167,FCC,ANNEAL,FCC,,,7.4,,T,700.0,547.0,840.0,17.0,,,185,,,,10.3390/e21020169,2019,Microstructure and Mechanical Properties of Precipitate Strengthened High Entropy Alloy Al10Co25Cr8Fe15Ni36Ti6 with Additions of Hafnium and Molybdenum
220,Al0.278 Co0.694 Cr0.222 Fe0.417 Ni1 Ti0.167,FCC,ANNEAL,FCC,,,7.4,,T,800.0,399.0,575.0,20.0,,,185,,,,10.3390/e21020169,2019,Microstructure and Mechanical Properties of Precipitate Strengthened High Entropy Alloy Al10Co25Cr8Fe15Ni36Ti6 with Additions of Hafnium and Molybdenum
220,Al0.278 Co0.694 Cr0.222 Fe0.417 Ni1 Ti0.167,FCC,ANNEAL,FCC,,,7.4,,T,900.0,243.0,319.0,34.0,,,185,,,,10.3390/e21020169,2019,Microstructure and Mechanical Properties of Precipitate Strengthened High Entropy Alloy Al10Co25Cr8Fe15Ni36Ti6 with Additions of Hafnium and Molybdenum
221,Co0.286 Cr0.429 Fe1 Mn0.143 Ni0.714 V0.286,FCC,WROUGHT,FCC,8.7,,7.9,,T,25.0,401.0,717.0,49.0,,,208,,,,10.1016/j.msea.2018.12.077,2019,Effect of grain size on the tensile behavior of V10Cr15Mn5Fe35Co10Ni25 high entropy alloy
221,Co0.286 Cr0.429 Fe1 Mn0.143 Ni0.714 V0.286,FCC,WROUGHT,FCC,10.4,,7.9,,T,25.0,350.0,690.0,50.0,,,208,,,,10.1016/j.msea.2018.12.077,2019,Effect of grain size on the tensile behavior of V10Cr15Mn5Fe35Co10Ni25 high entropy alloy
221,Co0.286 Cr0.429 Fe1 Mn0.143 Ni0.714 V0.286,FCC,WROUGHT,FCC,11.2,,7.9,,T,25.0,312.0,660.0,51.0,,,208,,,,10.1016/j.msea.2018.12.077,2019,Effect of grain size on the tensile behavior of V10Cr15Mn5Fe35Co10Ni25 high entropy alloy
221,Co0.286 Cr0.429 Fe1 Mn0.143 Ni0.714 V0.286,FCC,WROUGHT,FCC,48.2,,7.9,,T,25.0,240.0,610.0,53.0,,,208,,,,10.1016/j.msea.2018.12.077,2019,Effect of grain size on the tensile behavior of V10Cr15Mn5Fe35Co10Ni25 high entropy alloy
221,Co0.286 Cr0.429 Fe1 Mn0.143 Ni0.714 V0.286,FCC,WROUGHT,FCC,82.7,,7.9,,T,25.0,210.0,593.0,52.0,,,208,,,,10.1016/j.msea.2018.12.077,2019,Effect of grain size on the tensile behavior of V10Cr15Mn5Fe35Co10Ni25 high entropy alloy
223,Co1 Cr1 Fe1 Mn1 Ni1,Other,POWDER,other,,7.5,8.0,410.9,T,25.0,,,,,184.0,,,,,10.1016/j.jallcom.2019.07.195,2019,Structure and properties of equiatomic CoCrFeNiMn alloy fabricated by high-energy ball milling and spark plasma sintering
224,Al1 Co0.5 Cr0.5 Fe0.5 Ni0.5,BCC+B2,CAST,other,80.67,,5.9,581.7,C,25.0,1241.0,,9.98,,,,,,,10.1016/j.jallcom.2019.07.100,2019,"Effects of Ti-to-Al ratios on the phases, microstructures, mechanical properties, and corrosion resistance of Al2-xCoCrFeNiTix high-entropy alloys"
224,Al1 Co0.556 Cr0.556 Fe0.556 Ni0.556 Ti0.111,BCC+B2,CAST,other,66.93,,5.9,605.5,C,25.0,1324.0,,10.02,,,,,,,10.1016/j.jallcom.2019.07.100,2019,"Effects of Ti-to-Al ratios on the phases, microstructures, mechanical properties, and corrosion resistance of Al2-xCoCrFeNiTix high-entropy alloys"
224,Al1 Co0.667 Cr0.667 Fe0.667 Ni0.667 Ti0.333,BCC+B2,CAST,other,56.27,,6.1,641.7,C,25.0,1566.0,,11.85,,,,,,,10.1016/j.jallcom.2019.07.100,2019,"Effects of Ti-to-Al ratios on the phases, microstructures, mechanical properties, and corrosion resistance of Al2-xCoCrFeNiTix high-entropy alloys"
224,Al1 Co0.833 Cr0.833 Fe0.833 Ni0.833 Ti0.667,BCC+B2,CAST,other,49.95,,6.2,639.6,C,25.0,1503.0,,7.73,,,,,,,10.1016/j.jallcom.2019.07.100,2019,"Effects of Ti-to-Al ratios on the phases, microstructures, mechanical properties, and corrosion resistance of Al2-xCoCrFeNiTix high-entropy alloys"
224,Al1 Co1 Cr1 Fe1 Ni1 Ti1,BCC+B2+Laves,CAST,other,30.49,,6.2,703.0,C,25.0,1448.0,,6.18,,,,,,,10.1016/j.jallcom.2019.07.100,2019,"Effects of Ti-to-Al ratios on the phases, microstructures, mechanical properties, and corrosion resistance of Al2-xCoCrFeNiTix high-entropy alloys"
224,Al0.667 Co0.833 Cr0.833 Fe0.833 Ni0.833 Ti1,BCC+B2+Laves,CAST,other,22.03,,6.3,856.9,C,25.0,1272.0,,3.15,,,,,,,10.1016/j.jallcom.2019.07.100,2019,"Effects of Ti-to-Al ratios on the phases, microstructures, mechanical properties, and corrosion resistance of Al2-xCoCrFeNiTix high-entropy alloys"