IDENTIFIER: Reference ID,FORMULA,PROPERTY: Microstructure,PROPERTY: Processing method,PROPERTY: BCC/FCC/other,PROPERTY: grain size ($\mu$m),PROPERTY: Exp. Density (g/cm$^3$),PROPERTY: Calculated Density (g/cm$^3$),PROPERTY: HV,PROPERTY: Type of test,PROPERTY: Test temperature ($^\circ$C),PROPERTY: YS (MPa),PROPERTY: UTS (MPa),PROPERTY: Elongation (%),PROPERTY: Elongation plastic (%),PROPERTY: Exp. Young modulus (GPa),PROPERTY: Calculated Young modulus (GPa),PROPERTY: O content (wppm),PROPERTY: N content (wppm),PROPERTY: C content (wppm),REFERENCE: doi,REFERENCE: year,REFERENCE: title
81,Hf1 Nb1 Ta1 Ti1 Zr1,BCC,WROUGHT,BCC,,,9.9,,T,25.0,958.0,974.0,,,,107,,,,10.1016/j.matlet.2016.08.060,2016,Simultaneously increasing the strength and ductility of a refractory high-entropy alloy via grain refining
81,Hf1 Nb1 Ta1 Ti1 Zr1,BCC,WROUGHT,BCC,,,9.9,,T,25.0,944.0,959.0,,,,107,,,,10.1016/j.matlet.2016.08.060,2016,Simultaneously increasing the strength and ductility of a refractory high-entropy alloy via grain refining
81,Hf1 Nb1 Ta1 Ti1 Zr1,BCC,WROUGHT,BCC,,,9.9,,T,25.0,940.0,953.0,,,,107,,,,10.1016/j.matlet.2016.08.060,2016,Simultaneously increasing the strength and ductility of a refractory high-entropy alloy via grain refining
82,Hf1 Nb1 Ta1 Ti1 Zr1,BCC,WROUGHT,BCC,,,9.9,,T,25.0,940.0,1080.0,,,,107,,,,10.1016/j.actamat.2017.09.062,2018,Study of a bcc multi-principal element alloy: Tensile and simple shear properties and underlying deformation mechanisms
83,Hf1 Nb1 Ta1 Ti1 Zr1,BCC,CAST,BCC,,,9.9,,C,25.0,905.0,,,,,107,,,,10.1016/j.msea.2015.08.024,2015,On the room temperature deformation mechanisms of a TiZrHfNbTa refractory high-entropy alloy
84,Hf1 Nb1 Ta1 Ti1 Zr1,BCC,CAST,BCC,,,9.9,,C,25.0,890.0,,,,,107,,,,10.1016/j.matchar.2015.11.018,2016,Mechanical behavior and microstructure of Ti20Hf20Zr20Ta20Nb20 high-entropy alloy loaded under quasi-static and dynamic compression conditions
85,Hf1 Nb1 Ta1 Ti1 Zr1,BCC,CAST,BCC,,,9.9,,T,25.0,828.0,862.0,,,,107,,,,10.1016/j.msea.2015.12.017,2016,Elastic and plastic properties of as-cast equimolar TiHfZrTaNb high-entropy alloy
85,Hf1 Nb1 Ta1 Ti1 Zr1,BCC,CAST,BCC,,,9.9,,T,25.0,827.0,856.0,,,,107,,,,10.1016/j.msea.2015.12.017,2016,Elastic and plastic properties of as-cast equimolar TiHfZrTaNb high-entropy alloy
85,Hf1 Nb1 Ta1 Ti1 Zr1,BCC,CAST,BCC,,,9.9,,T,25.0,820.0,869.0,,,,107,,,,10.1016/j.msea.2015.12.017,2016,Elastic and plastic properties of as-cast equimolar TiHfZrTaNb high-entropy alloy
85,Hf1 Nb1 Ta1 Ti1 Zr1,BCC,CAST,BCC,,,9.9,,T,25.0,803.0,810.0,,,,107,,,,10.1016/j.msea.2015.12.017,2016,Elastic and plastic properties of as-cast equimolar TiHfZrTaNb high-entropy alloy
86,Al0.2 Mo1 Ta1 Ti1 V1,BCC,CAST,BCC,,,9.3,,C,25.0,1021.0,1249.0,,,,183,,,,10.4028/www.scientific.net/MSF.898.638,2017,Microstructure and Mechanical Properties of VTaTiMoAlsubx/sub Refractory High Entropy Alloys
86,Al0.6 Mo1 Ta1 Ti1 V1,BCC,CAST,BCC,,,8.7,,C,25.0,962.0,1033.0,,,,173,,,,10.4028/www.scientific.net/MSF.898.638,2017,Microstructure and Mechanical Properties of VTaTiMoAlsubx/sub Refractory High Entropy Alloys
86,Al1 Mo1 Ta1 Ti1 V1,BCC,CAST,BCC,,,8.2,,C,25.0,,735.0,,,,165,,,,10.4028/www.scientific.net/MSF.898.638,2017,Microstructure and Mechanical Properties of VTaTiMoAlsubx/sub Refractory High Entropy Alloys
86,Mo1 Ta1 Ti1 V1,BCC,CAST,BCC,,,9.6,,C,25.0,1221.0,1454.0,,,,189,,,,10.4028/www.scientific.net/MSF.898.638,2017,Microstructure and Mechanical Properties of VTaTiMoAlsubx/sub Refractory High Entropy Alloys
87,Hf1 Nb1 Ta1 Zr1,BCC+HCP,ANNEAL,other,,,11.1,571.0,C,25.0,2310.0,,0.3,,,,,,,10.1016/j.actamat.2016.01.018,2016,Structural-disorder and its effect on mechanical properties in single-phase TaNbHfZr high-entropy alloy
87,Hf1 Nb1 Ta1 Zr1,BCC+HCP,ANNEAL,other,,,11.1,536.0,C,25.0,2100.0,2200.0,3.5,,,,,,,10.1016/j.actamat.2016.01.018,2016,Structural-disorder and its effect on mechanical properties in single-phase TaNbHfZr high-entropy alloy
87,Hf1 Nb1 Ta1 Zr1,BCC+HCP,ANNEAL,other,,,11.1,,C,25.0,2020.0,2030.0,1.7,,,,,,,10.1016/j.actamat.2016.01.018,2016,Structural-disorder and its effect on mechanical properties in single-phase TaNbHfZr high-entropy alloy
87,Hf1 Nb1 Ta1 Zr1,BCC+HCP,ANNEAL,other,,,11.1,550.0,C,25.0,1950.0,2010.0,2.2,,,,,,,10.1016/j.actamat.2016.01.018,2016,Structural-disorder and its effect on mechanical properties in single-phase TaNbHfZr high-entropy alloy
87,Hf1 Nb1 Ta1 Zr1,BCC,CAST,BCC,,,11.1,365.0,C,25.0,1315.0,1800.0,21.6,,,105,,,,10.1016/j.actamat.2016.01.018,2016,Structural-disorder and its effect on mechanical properties in single-phase TaNbHfZr high-entropy alloy
88,Hf1 Ta0.4 Ti1 Zr1,BCC+HCP,CAST,other,,,9.2,,T,25.0,400.0,1100.0,,,,,,,,10.1002/adma.201701678,2017,Phase-Transformation Ductilization of Brittle High-Entropy Alloys via Metastability Engineering
88,Hf1 Ta0.5 Ti1 Zr1,BCC+HCP,CAST,other,,,9.4,,T,25.0,700.0,1100.0,,,,,,,,10.1002/adma.201701678,2017,Phase-Transformation Ductilization of Brittle High-Entropy Alloys via Metastability Engineering
88,Hf1 Ta0.6 Ti1 Zr1,BCC+HCP,CAST,other,,,9.6,,T,25.0,800.0,1100.0,,,,,,,,10.1002/adma.201701678,2017,Phase-Transformation Ductilization of Brittle High-Entropy Alloys via Metastability Engineering
88,Hf1 Ta1 Ti1 Zr1,BCC,CAST,BCC,,,10.2,,T,25.0,1500.0,1500.0,,,,107,,,,10.1002/adma.201701678,2017,Phase-Transformation Ductilization of Brittle High-Entropy Alloys via Metastability Engineering
89,Mo1 Nb1 Ta1 Ti0.25 W1,BCC,CAST,BCC,,,13.1,478.3,C,25.0,1109.0,1197.0,,,,242,,,,10.1016/j.msea.2017.12.004,2018,Microstructures and mechanical properties of Ti NbMoTaW refractory high-entropy alloys
89,Mo1 Nb1 Ta1 Ti0.5 W1,BCC,CAST,BCC,,,12.6,481.2,C,25.0,1211.0,1578.0,,,,234,,,,10.1016/j.msea.2017.12.004,2018,Microstructures and mechanical properties of Ti NbMoTaW refractory high-entropy alloys
89,Mo1 Nb1 Ta1 Ti0.75 W1,BCC,CAST,BCC,,,12.2,495.6,C,25.0,1304.0,1593.0,,,,228,,,,10.1016/j.msea.2017.12.004,2018,Microstructures and mechanical properties of Ti NbMoTaW refractory high-entropy alloys
89,Mo1 Nb1 Ta1 Ti1 W1,BCC,CAST,BCC,,,11.8,507.5,C,25.0,1455.0,1910.0,,,,222,,,,10.1016/j.msea.2017.12.004,2018,Microstructures and mechanical properties of Ti NbMoTaW refractory high-entropy alloys
89,Mo1 Nb1 Ta1 W1,BCC,CAST,BCC,,,13.7,,C,25.0,996.0,1148.0,,,,250,,,,10.1016/j.msea.2017.12.004,2018,Microstructures and mechanical properties of Ti NbMoTaW refractory high-entropy alloys
90,Mo1 Nb1 Ta1 Ti1 V1,BCC,CAST,BCC,,,9.4,,C,25.0,1400.0,2450.0,,,,171,,,,10.1016/j.jallcom.2016.11.188,2017,Mechanical properties of refractory high-entropy alloys: Experiments and modeling
91,Mo1 Nb1 Ta1 Ti1 V1 W1,BCC,CAST,BCC,,,11.0,,C,600.0,973.0,1590.0,,,,209,,,,10.1016/j.intermet.2017.01.007,2017,Effect of Ti additions on mechanical properties of NbMoTaW and VNbMoTaW refractory high entropy alloys
91,Mo1 Nb1 Ta1 Ti1 V1 W1,BCC,CAST,BCC,,,11.0,,C,800.0,791.3,1180.0,,,,209,,,,10.1016/j.intermet.2017.01.007,2017,Effect of Ti additions on mechanical properties of NbMoTaW and VNbMoTaW refractory high entropy alloys
91,Mo1 Nb1 Ta1 Ti1 V1 W1,BCC,CAST,BCC,,,11.0,,C,1000.0,752.8,1105.0,,,,209,,,,10.1016/j.intermet.2017.01.007,2017,Effect of Ti additions on mechanical properties of NbMoTaW and VNbMoTaW refractory high entropy alloys
91,Mo1 Nb1 Ta1 Ti1 V1 W1,BCC,CAST,BCC,,,11.0,,C,1200.0,659.0,696.0,,,,209,,,,10.1016/j.intermet.2017.01.007,2017,Effect of Ti additions on mechanical properties of NbMoTaW and VNbMoTaW refractory high entropy alloys
91,Mo1 Nb1 Ta1 Ti1 V1 W1,BCC,CAST,BCC,,,11.0,,C,25.0,1515.0,2135.0,,,,209,,,,10.1016/j.intermet.2017.01.007,2017,Effect of Ti additions on mechanical properties of NbMoTaW and VNbMoTaW refractory high entropy alloys
91,Mo1 Nb1 Ta1 Ti1 W1,BCC,CAST,BCC,,,11.8,,C,600.0,689.0,1681.0,,,,222,,,,10.1016/j.intermet.2017.01.007,2017,Effect of Ti additions on mechanical properties of NbMoTaW and VNbMoTaW refractory high entropy alloys
91,Mo1 Nb1 Ta1 Ti1 W1,BCC,CAST,BCC,,,11.8,,C,800.0,674.0,1618.0,,,,222,,,,10.1016/j.intermet.2017.01.007,2017,Effect of Ti additions on mechanical properties of NbMoTaW and VNbMoTaW refractory high entropy alloys
91,Mo1 Nb1 Ta1 Ti1 W1,BCC,CAST,BCC,,,11.8,,C,1000.0,620.0,1426.0,,,,222,,,,10.1016/j.intermet.2017.01.007,2017,Effect of Ti additions on mechanical properties of NbMoTaW and VNbMoTaW refractory high entropy alloys
91,Mo1 Nb1 Ta1 Ti1 W1,BCC,CAST,BCC,,,11.8,,C,1200.0,586.0,814.0,,,,222,,,,10.1016/j.intermet.2017.01.007,2017,Effect of Ti additions on mechanical properties of NbMoTaW and VNbMoTaW refractory high entropy alloys
91,Mo1 Nb1 Ta1 Ti1 W1,BCC,CAST,BCC,,,11.8,,C,25.0,1343.0,2005.0,,,,222,,,,10.1016/j.intermet.2017.01.007,2017,Effect of Ti additions on mechanical properties of NbMoTaW and VNbMoTaW refractory high entropy alloys
92,Mo1 Nb1 Ta1 Ti1 Zr1,BCC+BCC,CAST,other,,,9.1,,C,25.0,1390.0,,,,,,,,,10.1016/j.msec.2016.12.057,2017,TiZrNbTaMo high-entropy alloy designed for orthopedic implants: As-cast microstructure and mechanical properties
93,Mo1 Nb1 Ta1 Ti1 Zr1,BCC+BCC,ANNEAL,other,,,9.1,,C,25.0,1100.0,1200.0,,,,,,,,10.1016/j.scriptamat.2016.10.028,2017,Novel TiNbTaZrMo high-entropy alloys for metallic biomaterials
93,Mo1 Nb1 Ta1 Ti1 Zr1,BCC+BCC,CAST,other,,,9.1,,C,25.0,1375.0,1450.0,,,,,,,,10.1016/j.scriptamat.2016.10.028,2017,Novel TiNbTaZrMo high-entropy alloys for metallic biomaterials
94,Mo1 Nb1 Ta1 V1 W1,BCC,POWDER,BCC,,,12.4,,C,25.0,2612.0,3472.0,,,,229,,,,10.1016/j.msea.2017.12.021,2018,Ultra-high strength WNbMoTaV high-entropy alloys with fine grain structure fabricated by powder metallurgical process
95,Nb1 Ta1 Ti1 V1,BCC,CAST,BCC,,,9.2,,C,25.0,965.0,,,,,134,,,,10.1016/j.msea.2016.07.102,2016,"NbTaV-(Ti,W) refractory high-entropy alloys: Experiments and modeling"
95,Nb1 Ta1 Ti1 V1 W1,BCC,CAST,BCC,,,11.1,,C,25.0,1420.0,1800.0,20.0,,,187,,,,10.1016/j.msea.2016.07.102,2016,"NbTaV-(Ti,W) refractory high-entropy alloys: Experiments and modeling"
95,Nb1 Ta1 V1 W1,BCC,CAST,BCC,,,12.9,,C,25.0,1530.0,1700.0,12.0,,,206,,,,10.1016/j.msea.2016.07.102,2016,"NbTaV-(Ti,W) refractory high-entropy alloys: Experiments and modeling"
96,Al0.25 Cr0.5 Nb0.5 Ti1 V0.25,BCC+Laves,ANNEAL,other,,,5.8,,C,600.0,930.0,,,,,,,,,10.1016/j.matlet.2016.11.030,2017,Precipitation-strengthened refractory Al 0.5 CrNbTi 2 V 0.5 high entropy alloy
96,Al0.25 Cr0.5 Nb0.5 Ti1 V0.25,BCC+Laves,ANNEAL,other,,,5.8,,C,800.0,445.0,,,,,,,,,10.1016/j.matlet.2016.11.030,2017,Precipitation-strengthened refractory Al 0.5 CrNbTi 2 V 0.5 high entropy alloy
96,Al0.25 Cr0.5 Nb0.5 Ti1 V0.25,BCC+Laves,ANNEAL,other,,,5.8,,C,1000.0,90.0,,,,,,,,,10.1016/j.matlet.2016.11.030,2017,Precipitation-strengthened refractory Al 0.5 CrNbTi 2 V 0.5 high entropy alloy
96,Al0.25 Cr0.5 Nb0.5 Ti1 V0.25,BCC+Laves,ANNEAL,other,,,5.8,,C,25.0,1340.0,1700.0,,,,,,,,10.1016/j.matlet.2016.11.030,2017,Precipitation-strengthened refractory Al 0.5 CrNbTi 2 V 0.5 high entropy alloy
96,Al0.25 Cr0.5 Nb0.5 Ti1 V0.25,BCC,CAST,BCC,,,5.8,,C,25.0,1240.0,,,,,134,,,,10.1016/j.matlet.2016.11.030,2017,Precipitation-strengthened refractory Al 0.5 CrNbTi 2 V 0.5 high entropy alloy
97,Al1 Cr0.5 Nb1 Ti1 V1,BCC,ANNEAL,BCC,,,5.6,,C,600.0,1005.0,1045.0,,,,119,,,,10.1016/j.jallcom.2015.08.224,2015,"Structure and mechanical properties of the AlCrxNbTiV (x = 0, 0.5, 1, 1.5) high entropy alloys"
97,Al1 Cr0.5 Nb1 Ti1 V1,BCC,ANNEAL,BCC,,,5.6,,C,800.0,640.0,685.0,,,,119,,,,10.1016/j.jallcom.2015.08.224,2015,"Structure and mechanical properties of the AlCrxNbTiV (x = 0, 0.5, 1, 1.5) high entropy alloys"
97,Al1 Cr0.5 Nb1 Ti1 V1,BCC,ANNEAL,BCC,,,5.6,,C,1000.0,40.0,80.0,,,,119,,,,10.1016/j.jallcom.2015.08.224,2015,"Structure and mechanical properties of the AlCrxNbTiV (x = 0, 0.5, 1, 1.5) high entropy alloys"
97,Al1 Cr0.5 Nb1 Ti1 V1,BCC,ANNEAL,BCC,,,5.6,,C,25.0,1300.0,1430.0,,,,119,,,,10.1016/j.jallcom.2015.08.224,2015,"Structure and mechanical properties of the AlCrxNbTiV (x = 0, 0.5, 1, 1.5) high entropy alloys"
97,Al0.667 Cr1 Nb0.667 Ti0.667 V0.667,BCC+Laves,ANNEAL,other,,,5.9,,C,600.0,1370.0,1480.0,,,,,,,,10.1016/j.jallcom.2015.08.224,2015,"Structure and mechanical properties of the AlCrxNbTiV (x = 0, 0.5, 1, 1.5) high entropy alloys"
97,Al0.667 Cr1 Nb0.667 Ti0.667 V0.667,BCC+Laves,ANNEAL,other,,,5.9,,C,800.0,970.0,1045.0,,,,,,,,10.1016/j.jallcom.2015.08.224,2015,"Structure and mechanical properties of the AlCrxNbTiV (x = 0, 0.5, 1, 1.5) high entropy alloys"
97,Al0.667 Cr1 Nb0.667 Ti0.667 V0.667,BCC+Laves,ANNEAL,other,,,5.9,,C,1000.0,75.0,105.0,,,,,,,,10.1016/j.jallcom.2015.08.224,2015,"Structure and mechanical properties of the AlCrxNbTiV (x = 0, 0.5, 1, 1.5) high entropy alloys"
97,Al0.667 Cr1 Nb0.667 Ti0.667 V0.667,BCC+Laves,ANNEAL,other,,,5.9,,C,25.0,1700.0,1700.0,,,,,,,,10.1016/j.jallcom.2015.08.224,2015,"Structure and mechanical properties of the AlCrxNbTiV (x = 0, 0.5, 1, 1.5) high entropy alloys"
97,Al1 Cr1 Nb1 Ti1 V1,BCC+Laves,ANNEAL,other,,,5.8,,C,600.0,1015.0,1060.0,,,,,,,,10.1016/j.jallcom.2015.08.224,2015,"Structure and mechanical properties of the AlCrxNbTiV (x = 0, 0.5, 1, 1.5) high entropy alloys"
97,Al1 Cr1 Nb1 Ti1 V1,BCC+Laves,ANNEAL,other,,,5.8,,C,800.0,860.0,895.0,,,,,,,,10.1016/j.jallcom.2015.08.224,2015,"Structure and mechanical properties of the AlCrxNbTiV (x = 0, 0.5, 1, 1.5) high entropy alloys"
97,Al1 Cr1 Nb1 Ti1 V1,BCC+Laves,ANNEAL,other,,,5.8,,C,1000.0,65.0,95.0,,,,,,,,10.1016/j.jallcom.2015.08.224,2015,"Structure and mechanical properties of the AlCrxNbTiV (x = 0, 0.5, 1, 1.5) high entropy alloys"
97,Al1 Cr1 Nb1 Ti1 V1,BCC+Laves,ANNEAL,other,,,5.8,,C,25.0,1550.0,1570.0,,,,,,,,10.1016/j.jallcom.2015.08.224,2015,"Structure and mechanical properties of the AlCrxNbTiV (x = 0, 0.5, 1, 1.5) high entropy alloys"
97,Al1 Nb1 Ti1 V1,BCC,ANNEAL,BCC,,,5.5,,C,600.0,780.0,1005.0,,,,104,,,,10.1016/j.jallcom.2015.08.224,2015,"Structure and mechanical properties of the AlCrxNbTiV (x = 0, 0.5, 1, 1.5) high entropy alloys"
97,Al1 Nb1 Ti1 V1,BCC,ANNEAL,BCC,,,5.5,,C,800.0,560.0,700.0,,,,104,,,,10.1016/j.jallcom.2015.08.224,2015,"Structure and mechanical properties of the AlCrxNbTiV (x = 0, 0.5, 1, 1.5) high entropy alloys"
97,Al1 Nb1 Ti1 V1,BCC,ANNEAL,BCC,,,5.5,,C,1000.0,110.0,,,,,104,,,,10.1016/j.jallcom.2015.08.224,2015,"Structure and mechanical properties of the AlCrxNbTiV (x = 0, 0.5, 1, 1.5) high entropy alloys"
97,Al1 Nb1 Ti1 V1,BCC,ANNEAL,BCC,,,5.5,,C,25.0,1000.0,1280.0,,,,104,,,,10.1016/j.jallcom.2015.08.224,2015,"Structure and mechanical properties of the AlCrxNbTiV (x = 0, 0.5, 1, 1.5) high entropy alloys"
140,Al0.3 Co1 Cr1 Fe1 Ni1,FCC+B2+Sec.,WROUGHT,other,0.71,,7.6,,T,25.0,900.0,1074.0,25.0,,,,,,,10.1016/j.scriptamat.2018.08.048,2019,Fatigue behavior of ultrafine grained triplex Al0.3CoCrFeNi high entropy alloy
151,Cr0.5 Fe1 Mn0.625 Ni0.375,FCC+BCC,CAST,other,75.0,,7.8,,C,25.0,219.0,,,,,,,,,10.1016/j.jallcom.2018.08.093,2019,Effect of Al on structure and mechanical properties of Fe-Mn-Cr-Ni-Al non-equiatomic high entropy alloys with high Fe content
151,Al0.05 Cr0.5 Fe1 Mn0.625 Ni0.375,FCC+BCC,CAST,other,,,7.6,,C,25.0,354.0,,,,,,,,,10.1016/j.jallcom.2018.08.093,2019,Effect of Al on structure and mechanical properties of Fe-Mn-Cr-Ni-Al non-equiatomic high entropy alloys with high Fe content
151,Al0.15 Cr0.5 Fe1 Mn0.625 Ni0.375,FCC+BCC,CAST,other,,,7.4,,C,25.0,550.0,,,,,,,,,10.1016/j.jallcom.2018.08.093,2019,Effect of Al on structure and mechanical properties of Fe-Mn-Cr-Ni-Al non-equiatomic high entropy alloys with high Fe content
151,Al0.25 Cr0.5 Fe1 Mn0.625 Ni0.375,B2+BCC,CAST,other,175.0,,7.2,,C,25.0,994.0,,,,,,,,,10.1016/j.jallcom.2018.08.093,2019,Effect of Al on structure and mechanical properties of Fe-Mn-Cr-Ni-Al non-equiatomic high entropy alloys with high Fe content
151,Al0.35 Cr0.5 Fe1 Mn0.625 Ni0.375,B2+BCC,CAST,other,175.0,,6.9,,C,25.0,942.0,,,,,,,,,10.1016/j.jallcom.2018.08.093,2019,Effect of Al on structure and mechanical properties of Fe-Mn-Cr-Ni-Al non-equiatomic high entropy alloys with high Fe content
151,Cr0.5 Fe1 Mn0.625 Ni0.375,FCC+BCC,CAST,other,,,7.8,,C,400.0,132.0,,,,,,,,,10.1016/j.jallcom.2018.08.093,2019,Effect of Al on structure and mechanical properties of Fe-Mn-Cr-Ni-Al non-equiatomic high entropy alloys with high Fe content
151,Al0.05 Cr0.5 Fe1 Mn0.625 Ni0.375,FCC+BCC,CAST,other,,,7.6,,C,400.0,260.0,,,,,,,,,10.1016/j.jallcom.2018.08.093,2019,Effect of Al on structure and mechanical properties of Fe-Mn-Cr-Ni-Al non-equiatomic high entropy alloys with high Fe content
151,Al0.15 Cr0.5 Fe1 Mn0.625 Ni0.375,FCC+BCC,CAST,other,,,7.4,,C,400.0,469.0,,,,,,,,,10.1016/j.jallcom.2018.08.093,2019,Effect of Al on structure and mechanical properties of Fe-Mn-Cr-Ni-Al non-equiatomic high entropy alloys with high Fe content
151,Al0.25 Cr0.5 Fe1 Mn0.625 Ni0.375,B2+BCC,CAST,other,,,7.2,,C,400.0,943.0,,,,,,,,,10.1016/j.jallcom.2018.08.093,2019,Effect of Al on structure and mechanical properties of Fe-Mn-Cr-Ni-Al non-equiatomic high entropy alloys with high Fe content
151,Al0.35 Cr0.5 Fe1 Mn0.625 Ni0.375,B2+BCC,CAST,other,,,6.9,,C,400.0,833.0,,,,,,,,,10.1016/j.jallcom.2018.08.093,2019,Effect of Al on structure and mechanical properties of Fe-Mn-Cr-Ni-Al non-equiatomic high entropy alloys with high Fe content
151,Cr0.5 Fe1 Mn0.625 Ni0.375,FCC+BCC,CAST,other,,,7.8,,C,600.0,115.0,,,,,,,,,10.1016/j.jallcom.2018.08.093,2019,Effect of Al on structure and mechanical properties of Fe-Mn-Cr-Ni-Al non-equiatomic high entropy alloys with high Fe content
151,Al0.05 Cr0.5 Fe1 Mn0.625 Ni0.375,FCC+BCC,CAST,other,,,7.6,,C,600.0,155.0,,,,,,,,,10.1016/j.jallcom.2018.08.093,2019,Effect of Al on structure and mechanical properties of Fe-Mn-Cr-Ni-Al non-equiatomic high entropy alloys with high Fe content
151,Al0.15 Cr0.5 Fe1 Mn0.625 Ni0.375,FCC+BCC,CAST,other,,,7.4,,C,600.0,272.0,,,,,,,,,10.1016/j.jallcom.2018.08.093,2019,Effect of Al on structure and mechanical properties of Fe-Mn-Cr-Ni-Al non-equiatomic high entropy alloys with high Fe content
151,Al0.25 Cr0.5 Fe1 Mn0.625 Ni0.375,B2+BCC,CAST,other,,,7.2,,C,600.0,359.0,,,,,,,,,10.1016/j.jallcom.2018.08.093,2019,Effect of Al on structure and mechanical properties of Fe-Mn-Cr-Ni-Al non-equiatomic high entropy alloys with high Fe content
151,Al0.35 Cr0.5 Fe1 Mn0.625 Ni0.375,B2+BCC,CAST,other,,,6.9,,C,600.0,326.0,,,,,,,,,10.1016/j.jallcom.2018.08.093,2019,Effect of Al on structure and mechanical properties of Fe-Mn-Cr-Ni-Al non-equiatomic high entropy alloys with high Fe content
198,Co1 Cr1 Fe1 Mn1 Ni1,FCC,WROUGHT,FCC,4.4,,8.0,,T,25.0,370.0,670.0,56.0,,,220,,,,10.1016/j.actamat.2013.06.018,2013,The influences of temperature and microstructure on the tensile properties of a CoCrFeMnNi high-entropy alloy
174,Co0.2 Cr0.2 Fe1 Mn0.6,FCC+HCP,ANNEAL,other,45.0,,7.8,,T,25.0,250.0,730.0,50.0,,,,,,,10.1016/j.actamat.2017.03.069,2017,A TRIP-assisted dual-phase high-entropy alloy: Grain size and phase fraction effects on deformation behavior
174,Co0.2 Cr0.2 Fe1 Mn0.6,FCC+HCP,WROUGHT,other,4.5,,7.8,,T,25.0,330.0,870.0,75.0,,,,,,,10.1016/j.actamat.2017.03.069,2017,A TRIP-assisted dual-phase high-entropy alloy: Grain size and phase fraction effects on deformation behavior
174,Co0.2 Cr0.2 Fe1 Mn0.6,FCC+HCP,WROUGHT,other,6.0,,7.8,,T,25.0,280.0,800.0,65.0,,,,,,,10.1016/j.actamat.2017.03.069,2017,A TRIP-assisted dual-phase high-entropy alloy: Grain size and phase fraction effects on deformation behavior
174,Co0.2 Cr0.2 Fe1 Mn0.6,FCC+HCP,WROUGHT,other,15.0,,7.8,,T,25.0,350.0,830.0,63.0,,,,,,,10.1016/j.actamat.2017.03.069,2017,A TRIP-assisted dual-phase high-entropy alloy: Grain size and phase fraction effects on deformation behavior
176,Co0.2 Cr0.2 Fe1 Mn0.6,FCC+HCP,WROUGHT,other,6.5,,7.8,,T,25.0,298.0,1400.0,45.0,,,,,,,10.1038/s41598-017-16509-9,2017,Enhanced strength and ductility in a friction stir processing engineered dual phase high entropy alloy
176,Co0.2 Cr0.2 Fe1 Mn0.6,FCC+HCP,WROUGHT,other,5.2,,7.8,,T,25.0,400.0,1200.0,42.0,,,,,,,10.1038/s41598-017-16509-9,2017,Enhanced strength and ductility in a friction stir processing engineered dual phase high entropy alloy