IDENTIFIER: Reference ID,FORMULA,PROPERTY: Microstructure,PROPERTY: Processing method,PROPERTY: grain size ($\mu$m),PROPERTY: ROM Density (g/cm$^3$),PROPERTY: Exp. Density (g/cm$^3$),PROPERTY: HV,PROPERTY: Type of test,PROPERTY: Test temperature ($^\circ$C),PROPERTY: YS (MPa),PROPERTY: UTS (MPa),PROPERTY: Elongation (%),PROPERTY: Elongation plastic (%),PROPERTY: Young modulus (GPa),PROPERTY: O content (wppm),PROPERTY: N content (wppm),PROPERTY: C content (wppm),REFERENCE: doi,REFERENCE: year
27,Al0.25 Co1 Fe1 Ni1,FCC,CAST,,7.9,,138.0,C,25.0,158.0,,,,196.0,,,,10.1016/j.jmmm.2014.07.023,2014
27,Al0.5 Co1 Fe1 Ni1,FCC+BCC,CAST,,7.4,,212.0,C,25.0,346.0,,,,187.0,,,,10.1016/j.jmmm.2014.07.023,2014
27,Al0.75 Co1 Fe1 Ni1,FCC+BCC,CAST,,7.0,,385.0,C,25.0,794.0,,,,179.0,,,,10.1016/j.jmmm.2014.07.023,2014
27,Al1 Co1 Fe1 Ni1,BCC,CAST,,6.6,,456.0,C,25.0,964.0,,,,173.0,,,,10.1016/j.jmmm.2014.07.023,2014
27,Co1 Fe1 Ni1,FCC,CAST,,8.5,,125.0,C,25.0,204.0,,,,207.0,,,,10.1016/j.jmmm.2014.07.023,2014
27,Co1 Fe1 Ni1,FCC,CAST,,8.5,,125.0,C,25.0,209.0,,,,207.0,,,,10.1016/j.jmmm.2014.07.023,2014
27,Co1 Fe1 Ni1 Si0.25,FCC,CAST,,7.7,,149.0,C,25.0,196.0,,,,194.0,,,,10.1016/j.jmmm.2014.07.023,2014
27,Co1 Fe1 Ni1 Si0.5,FCC+Sec.,CAST,,7.1,,287.0,C,25.0,476.0,,,,,,,,10.1016/j.jmmm.2014.07.023,2014
27,Co1 Fe1 Ni1 Si0.75,FCC+Sec.,CAST,,6.6,,570.0,C,25.0,1301.0,,,,,,,,10.1016/j.jmmm.2014.07.023,2014
37,Co1 Cr1 Fe1 Ni1,FCC,WROUGHT,24.0,8.2,,,T,25.0,274.0,708.0,39.0,,225.0,,,,10.1016/j.actamat.2014.08.026,2014
37,Co1 Cr1 Mn1 Ni1,FCC,WROUGHT,36.0,8.1,,,T,25.0,282.0,694.0,44.0,,222.0,,,,10.1016/j.actamat.2014.08.026,2014
37,Co1 Cr1 Ni1,FCC,WROUGHT,41.0,8.3,,,T,25.0,300.0,860.0,60.0,,229.0,,,,10.1016/j.actamat.2014.08.026,2014
37,Co1 Fe1 Mn1 Ni1,FCC,WROUGHT,48.0,8.2,,,T,25.0,170.0,550.0,41.0,,205.0,,,,10.1016/j.actamat.2014.08.026,2014
37,Co1 Fe1 Ni1,FCC,WROUGHT,28.0,8.5,,,T,25.0,211.0,513.0,31.0,,207.0,,,,10.1016/j.actamat.2014.08.026,2014
37,Co1 Mn1 Ni1,FCC,WROUGHT,32.0,8.4,,,T,25.0,231.0,653.0,38.0,,202.0,,,,10.1016/j.actamat.2014.08.026,2014
37,Fe1 Mn1 Ni1,FCC,WROUGHT,30.0,8.1,,,T,25.0,221.0,602.0,36.0,,203.0,,,,10.1016/j.actamat.2014.08.026,2014
46,Co1 Cr1 Fe1 Nb0.103 Ni1,FCC+Laves (C14),CAST,175.0,8.2,,,T,25.0,318.0,622.0,19.0,,,,,,10.1016/j.intermet.2015.01.004,2015
46,Co1 Cr1 Fe1 Nb0.155 Ni1,FCC+Laves (C14),CAST,175.0,8.2,,,T,25.0,322.0,744.0,23.0,,,,,,10.1016/j.intermet.2015.01.004,2015
46,Co1 Cr1 Fe1 Nb0.206 Ni1,FCC+Laves (C14),CAST,175.0,8.2,,,T,25.0,403.0,807.0,9.0,,,,,,10.1016/j.intermet.2015.01.004,2015
46,Co1 Cr1 Fe1 Nb0.309 Ni1,FCC+Laves (C14),CAST,175.0,8.2,,,T,25.0,479.0,879.0,4.0,,,,,,10.1016/j.intermet.2015.01.004,2015
46,Co1 Cr1 Fe1 Nb0.412 Ni1,FCC+Laves (C14),CAST,175.0,8.2,,,T,25.0,638.0,1004.0,1.0,,,,,,10.1016/j.intermet.2015.01.004,2015
46,Co1 Cr1 Fe1 Ni1,FCC,CAST,175.0,8.2,,,T,25.0,148.0,413.0,48.0,,225.0,,,,10.1016/j.intermet.2015.01.004,2015
54,Al0.25 Co1 Cr1 Fe1 Ni1,FCC,ANNEAL,,7.7,,110.0,,25.0,,,,,216.0,,,,10.1016/j.jallcom.2009.08.090,2009
54,Al0.25 Co1 Cr1 Fe1 Ni1,FCC,ANNEAL,,7.7,,113.0,,25.0,,,,,216.0,,,,10.1016/j.jallcom.2009.08.090,2009
54,Al0.375 Co1 Cr1 Fe1 Ni1,FCC,ANNEAL,,7.5,,131.0,,25.0,,,,,211.0,,,,10.1016/j.jallcom.2009.08.090,2009
54,Al0.375 Co1 Cr1 Fe1 Ni1,FCC,ANNEAL,,7.5,,196.0,,25.0,,,,,211.0,,,,10.1016/j.jallcom.2009.08.090,2009
54,Al0.5 Co1 Cr1 Fe1 Ni1,FCC+BCC,ANNEAL,,7.3,,159.0,,25.0,,,,,208.0,,,,10.1016/j.jallcom.2009.08.090,2009
54,Al0.5 Co1 Cr1 Fe1 Ni1,FCC+BCC,ANNEAL,,7.3,,209.0,,25.0,,,,,208.0,,,,10.1016/j.jallcom.2009.08.090,2009
54,Al0.75 Co1 Cr1 Fe1 Ni1,FCC+BCC,ANNEAL,,7.0,,388.0,,25.0,,,,,200.0,,,,10.1016/j.jallcom.2009.08.090,2009
54,Al0.75 Co1 Cr1 Fe1 Ni1,FCC+BCC,ANNEAL,,7.0,,280.0,,25.0,,,,,200.0,,,,10.1016/j.jallcom.2009.08.090,2009
54,Al0.875 Co1 Cr1 Fe1 Ni1,BCC,ANNEAL,,6.9,,538.0,,25.0,,,,,197.0,,,,10.1016/j.jallcom.2009.08.090,2009
54,Al0.875 Co1 Cr1 Fe1 Ni1,FCC+BCC,ANNEAL,,6.9,,361.0,,25.0,,,,,197.0,,,,10.1016/j.jallcom.2009.08.090,2009
54,Al1 Co0.8 Cr0.8 Fe0.8 Ni0.8,BCC,ANNEAL,,6.5,,487.0,,25.0,,,,,188.0,,,,10.1016/j.jallcom.2009.08.090,2009
54,Al1 Co0.8 Cr0.8 Fe0.8 Ni0.8,BCC,ANNEAL,,6.5,,499.0,,25.0,,,,,188.0,,,,10.1016/j.jallcom.2009.08.090,2009
54,Al1 Co0.667 Cr0.667 Fe0.667 Ni0.667,BCC,ANNEAL,,6.2,,484.0,,25.0,,,,,183.0,,,,10.1016/j.jallcom.2009.08.090,2009
54,Al1 Co0.667 Cr0.667 Fe0.667 Ni0.667,BCC,ANNEAL,,6.2,,517.0,,25.0,,,,,183.0,,,,10.1016/j.jallcom.2009.08.090,2009
54,Al1 Co0.5 Cr0.5 Fe0.5 Ni0.5,BCC,ANNEAL,,5.9,,509.0,,25.0,,,,,173.0,,,,10.1016/j.jallcom.2009.08.090,2009
54,Al1 Co0.5 Cr0.5 Fe0.5 Ni0.5,BCC,ANNEAL,,5.9,,512.0,,25.0,,,,,173.0,,,,10.1016/j.jallcom.2009.08.090,2009
54,Al1 Co1 Cr1 Fe1 Ni1,BCC,ANNEAL,,6.7,,484.0,,25.0,,,,,194.0,,,,10.1016/j.jallcom.2009.08.090,2009
54,Al1 Co1 Cr1 Fe1 Ni1,FCC+BCC,ANNEAL,,6.7,,433.0,,25.0,,,,,194.0,,,,10.1016/j.jallcom.2009.08.090,2009
54,Co1 Cr1 Fe1 Ni1,FCC,ANNEAL,,8.2,,116.0,,25.0,,,,,225.0,,,,10.1016/j.jallcom.2009.08.090,2009
54,Co1 Cr1 Fe1 Ni1,FCC,ANNEAL,,8.2,,113.0,,25.0,,,,,225.0,,,,10.1016/j.jallcom.2009.08.090,2009
63,Al0.5 Co1 Cr1 Fe1 Mo0.5 Ni1,FCC+Sec.,CAST,,7.7,,425.0,,25.0,,,,,,,,,10.1007/s11837-013-0753-6,
63,Al1 Co0.667 Cr0.667 Fe0.667 Mo0.333 Ni0.667,B2+Sec.,CAST,,6.6,,655.0,,25.0,,,,,,,,,10.1007/s11837-013-0753-6,
63,Al1 Co0.5 Cr0.5 Fe0.5 Mo0.25 Ni0.5,,CAST,,6.3,,605.0,,25.0,,,,,185.0,,,,10.1007/s11837-013-0753-6,
63,Al1 Co1 Cr1 Fe1 Mo0.5 Ni1,B2+Sec.,CAST,,7.1,,715.0,,25.0,,,,,,,,,10.1007/s11837-013-0753-6,
63,Co1 Cr1 Fe1 Mo0.5 Ni1,FCC+Sec.,CAST,,8.5,,210.0,,25.0,,,,,,,,,10.1007/s11837-013-0753-6,
66,Al0.5 Co1 Cr1 Fe1 Ni1 Ti1,BCC+Laves,CAST,,6.6,,,C,25.0,,1600.0,,10.0,107.0,,,,10.1016/j.msea.2008.12.053,2008
66,Al1 Co0.667 Cr0.667 Fe0.667 Ni0.667 Ti0.667,,CAST,,5.9,,,C,25.0,,2110.0,,10.0,133.0,,,,10.1016/j.msea.2008.12.053,2008
66,Al1 Co0.5 Cr0.5 Fe0.5 Ni0.5 Ti0.5,,CAST,,5.6,,643.0,C,25.0,,1030.0,,5.0,94.0,,,,10.1016/j.msea.2008.12.053,2008
66,Al1 Co1 Cr1 Fe1 Ni1 Ti1,BCC+Laves,CAST,0.15000000000000002,6.2,,,C,25.0,,2280.0,,6.0,148.0,,,,10.1016/j.msea.2008.12.053,2008
66,Co1 Cr1 Fe1 Ni1 Ti1,FCC,CAST,,7.2,,,C,25.0,,2020.0,,9.0,135.0,,,,10.1016/j.msea.2008.12.053,2008
1,Al0.133 Co1 Cr0.667 Fe0.667 Ni1 Ti0.667,FCC+Sec.,ANNEAL,,7.2,,717.0,,25.0,,,,,,,,,10.1016/j.actamat.2011.06.041,2011
1,Al0.133 Co1 Cr0.667 Fe0.667 Ni1 Ti0.333,FCC,ANNEAL,,7.6,,487.0,,25.0,,,,,206.0,,,,10.1016/j.actamat.2011.06.041,2011
1,Co1 Cr0.667 Fe0.667 Ni1 Ti0.667,FCC+Sec.,ANNEAL,,7.4,,654.0,,25.0,,,,,,,,,10.1016/j.actamat.2011.06.041,2011
1,Co1 Cr0.667 Fe0.667 Ni1 Ti0.333,Other,ANNEAL,,7.8,,509.0,,25.0,,,,,211.0,,,,10.1016/j.actamat.2011.06.041,2011
2,Al0.7 Co0.3 Cr1 Fe1 Ni1,FCC+BCC+B2,POWDER,,6.8,,624.0,C,25.0,2033.0,2635.0,8.0,,,,,,10.1016/j.matdes.2013.04.061,2013
3,Al0.875 Co1 Cr1 Fe1 Ni1,FCC+BCC,,,6.9,,,,25.0,,,,,197.0,,,,10.1016/C2013-0-14235-3,
4,Al1 Co0.667 Cr0.667 Fe0.667 Ni0.667,BCC,CAST,,6.2,,402.0,,25.0,,,,,183.0,,,,10.1016/j.jallcom.2008.07.124,2008
4,Al1 Co0.4 Cr0.4 Fe0.4 Ni0.4,BCC,CAST,,5.6,,487.0,,25.0,,,,,165.0,,,,10.1016/j.jallcom.2008.07.124,2008
4,Al1 Co0.5 Cr0.5 Fe0.5 Ni0.5,BCC,CAST,,5.9,,432.0,,25.0,,,,,173.0,,,,10.1016/j.jallcom.2008.07.124,2008
4,Al1 Co0.333 Cr0.333 Fe0.333 Ni0.333,BCC,CAST,,5.3,,506.0,,25.0,,,,,158.0,,,,10.1016/j.jallcom.2008.07.124,2008
4,Al1 Co1 Cr1 Fe1 Ni1,BCC,CAST,,6.7,,395.0,,25.0,,,,,194.0,,,,10.1016/j.jallcom.2008.07.124,2008
4,Al1 Cr1 Cu1 Fe1 Ni1,FCC+BCC,CAST,,6.8,,342.0,,25.0,,,,,178.0,,,,10.1016/j.jallcom.2008.07.124,2008
4,Co1 Cr1 Cu1 Fe1 Ni1,FCC,CAST,,8.3,,286.0,,25.0,,,,,206.0,,,,10.1016/j.jallcom.2008.07.124,2008
4,Cr1 Cu1 Fe1 Mn1 Ni1,FCC+BCC,CAST,,8.1,,296.0,,25.0,,,,,204.0,,,,10.1016/j.jallcom.2008.07.124,2008
4,Cr1 Cu1 Fe1 Mo1 Ni1,FCC,CAST,,8.7,,263.0,,25.0,,,,,230.0,,,,10.1016/j.jallcom.2008.07.124,2008
5,Al1 Co1 Cr1 Fe1 Ni1,BCC,CAST,,6.7,,,C,25.0,1251.0,2004.0,,33.0,194.0,,,,10.1016/j.msea.2008.01.064,2008
6,Al1 C0.1 Co1 Cr1 Fe1 Ni1,BCC+Sec.,CAST,,6.7,,,C,25.0,957.0,2550.0,,11.0,213.0,,,,10.1016/j.jallcom.2010.10.047,2010
6,Al1 C0.2 Co1 Cr1 Fe1 Ni1,BCC+Sec.,CAST,,6.8,,,C,25.0,906.0,2386.0,,9.0,151.0,,,,10.1016/j.jallcom.2010.10.047,2010
6,Al1 C0.3 Co1 Cr1 Fe1 Ni1,BCC+Sec.,CAST,,6.8,,,C,25.0,867.0,2178.0,,8.0,137.0,,,,10.1016/j.jallcom.2010.10.047,2010
6,Al1 C0.4 Co1 Cr1 Fe1 Ni1,BCC+Sec.,CAST,,6.8,,,C,25.0,1056.0,2375.0,,7.0,156.0,,,,10.1016/j.jallcom.2010.10.047,2010
6,Al1 C0.5 Co1 Cr1 Fe1 Ni1,BCC+Sec.,CAST,,6.8,,,C,25.0,1060.0,2250.0,,6.0,181.0,,,,10.1016/j.jallcom.2010.10.047,2010
6,Al0.667 C1 Co0.667 Cr0.667 Fe0.667 Ni0.667,BCC+Sec.,CAST,,7.0,,,C,25.0,1255.0,2083.0,,6.0,73.0,,,,10.1016/j.jallcom.2010.10.047,2010
6,Al1 C1 Co1 Cr1 Fe1 Ni1,BCC+Sec.,CAST,,6.9,,,C,25.0,1251.0,2166.0,,7.0,75.0,,,,10.1016/j.jallcom.2010.10.047,2010
6,Al1 Co1 Cr1 Fe1 Ni1,BCC,CAST,,6.7,,,C,25.0,1138.0,,,11.0,125.0,,,,10.1016/j.jallcom.2010.10.047,2010
7,Al1 Co1 Cr1 Fe1 Mo0.1 Ni1,BCC,CAST,,6.8,,,C,25.0,1804.0,2280.0,,9.0,196.0,,,,10.1016/j.msea.2010.07.028,2010
7,Al1 Co1 Cr1 Fe1 Mo0.2 Ni1,BCC+Sec.,CAST,,6.9,,,C,25.0,2456.0,2953.0,,3.0,,,,,10.1016/j.msea.2010.07.028,2010
7,Al1 Co1 Cr1 Fe1 Mo0.3 Ni1,BCC+Sec.,CAST,,7.0,,,C,25.0,2649.0,3208.0,,3.0,,,,,10.1016/j.msea.2010.07.028,2010
7,Al1 Co1 Cr1 Fe1 Mo0.4 Ni1,BCC+Sec.,CAST,,7.0,,,C,25.0,2670.0,3161.0,,3.0,,,,,10.1016/j.msea.2010.07.028,2010
7,Al1 Co1 Cr1 Fe1 Mo0.5 Ni1,BCC+Sec.,CAST,,7.1,,,C,25.0,2757.0,3036.0,,3.0,,,,,10.1016/j.msea.2010.07.028,2010
7,Al1 Co1 Cr1 Fe1 Ni1,BCC,CAST,,6.7,,,C,25.0,1051.0,,,,194.0,,,,10.1016/j.msea.2010.07.028,2010
8,Al1 Co1 Cr1 Fe1 Nb0.1 Ni1,BCC,CAST,,6.8,,569.0,C,25.0,1641.0,3285.0,,17.0,192.0,,,,10.1016/j.msea.2011.10.110,2011
8,Al1 Co1 Cr1 Fe1 Nb0.25 Ni1,BCC+Laves (C14),CAST,,6.8,,668.0,C,25.0,1959.0,3008.0,,11.0,,,,,10.1016/j.msea.2011.10.110,2011
8,Al1 Co1 Cr1 Fe1 Nb0.5 Ni1,BCC+Laves (C14),CAST,,7.0,,747.0,C,25.0,2473.0,3170.0,,4.0,,,,,10.1016/j.msea.2011.10.110,2011
8,Al1 Co1 Cr1 Fe1 Nb0.75 Ni1,BCC+Laves (C14),CAST,,7.0,,,,25.0,,,,,,,,,10.1016/j.msea.2011.10.110,2011
8,Al1 Co1 Cr1 Fe1 Ni1,BCC,CAST,,6.7,,520.0,C,25.0,1373.0,3531.0,,25.0,194.0,,,,10.1016/j.msea.2011.10.110,2011
9,Al0.8 Co1 Cr1 Cu1 Fe1 Ni1,FCC+BCC,CAST,,7.3,,270.0,,25.0,,,,,187.0,,,,10.1002/adem.200900171,
9,Al1 Co0.5 Cr1 Fe1 Mo0.5 Ni1,BCC+Sec.,CAST,,7.0,,801.0,,25.0,,,,,,,,,10.1002/adem.200900171,
9,Al0.667 Co1 Cr0.667 Fe0.667 Mo0.333 Ni0.667,BCC+Sec.,CAST,,7.2,,741.0,,25.0,,,,,,,,,10.1002/adem.200900171,
9,Al0.5 Co1 Cr0.5 Fe0.5 Mo0.25 Ni0.5,FCC+BCC+Sec.,CAST,200.0,7.3,,586.0,,25.0,,,,,,,,,10.1002/adem.200900171,
9,Al1 Co1 Cr1 Fe1 Mo0.5 Ni1,BCC+Sec.,CAST,,7.1,,796.0,,25.0,,,,,,,,,10.1002/adem.200900171,
10,Al1 Co1 Cr1 Fe1 Mo0.5 Ni1,BCC+Sec.,CAST,,7.0,,755.0,,25.0,,,,,,,,,10.1016/j.wear.2009.10.013,2009
10,Al1 Co1 Cr1 Fe0.6 Mo0.5 Ni1,BCC+Sec.,CAST,,7.1,,754.0,,25.0,,,,,,,,,10.1016/j.wear.2009.10.013,2009
10,Al0.667 Co0.667 Cr0.667 Fe1 Mo0.333 Ni0.667,BCC+Sec.,CAST,,7.2,,635.0,,25.0,,,,,,,,,10.1016/j.wear.2009.10.013,2009
10,Al0.5 Co0.5 Cr0.5 Fe1 Mo0.25 Ni0.5,BCC+Sec.,CAST,,7.2,,639.0,,25.0,,,,,,,,,10.1016/j.wear.2009.10.013,2009
11,Al1 Co1 Cr1 Fe1 Mo0.5,,CAST,,6.8,,857.0,,25.0,,,,,,,,,10.1016/j.intermet.2012.09.008,2012
11,Al1 Co1 Cr1 Fe1 Mo0.5 Ni1,,CAST,,7.1,,730.0,,25.0,,,,,,,,,10.1016/j.intermet.2012.09.008,2012
11,Al1 Co1 Cr1 Fe1 Mo0.5 Ni0.5,,CAST,,7.0,,708.0,,25.0,,,,,,,,,10.1016/j.intermet.2012.09.008,2012
11,Al0.667 Co0.667 Cr0.667 Fe0.667 Mo0.333 Ni1,FCC+Sec.,CAST,,7.2,,586.0,,25.0,,,,,,,,,10.1016/j.intermet.2012.09.008,2012
11,Al0.5 Co0.5 Cr0.5 Fe0.5 Mo0.25 Ni1,FCC+Sec.,CAST,,7.4,,395.0,,25.0,,,,,,,,,10.1016/j.intermet.2012.09.008,2012
12,Al1 Co1 Cr1 Fe1 Ni1,BCC,CAST,,5.7,,,C,25.0,1110.0,,,,169.0,,,,10.1016/j.msea.2010.07.049,2010
12,Al1 Co1 Cr1 Fe1 Ni1 Si1,BCC+Sec.,CAST,,5.7,,,C,25.0,2411.0,2950.0,,1.0,,,,,10.1016/j.msea.2010.07.049,2010
12,Al1 Co1 Cr1 Fe1 Ni1 Si0.2,BCC,CAST,,6.5,,,C,25.0,1265.0,2173.0,,14.0,188.0,,,,10.1016/j.msea.2010.07.049,2010
12,Al1 Co1 Cr1 Fe1 Ni1 Si0.4,BCC,CAST,,6.2,,,C,25.0,1481.0,2444.0,,13.0,183.0,,,,10.1016/j.msea.2010.07.049,2010
12,Al1 Co1 Cr1 Fe1 Ni1 Si0.6,BCC,CAST,,6.0,,,C,25.0,1834.0,2195.0,,3.0,178.0,,,,10.1016/j.msea.2010.07.049,2010
12,Al1 Co1 Cr1 Fe1 Ni1 Si0.8,BCC+Sec.,CAST,,5.8,,,C,25.0,2179.0,2664.0,,2.0,,,,,10.1016/j.msea.2010.07.049,2010
13,Al0.25 Co1 Cr1 Cu0.5 Fe1 Ni1 Ti0.5,FCC,CAST,,7.4,,,,25.0,,,,,198.0,,,,10.1016/j.jallcom.2008.11.059,2008
13,Al0.25 Co1 Cr1 Cu0.75 Fe1 Ni1 Ti0.5,FCC,CAST,,7.5,,,C,25.0,750.0,1970.0,,39.0,103.0,,,,10.1016/j.jallcom.2008.11.059,2008
13,Al0.5 Co1 Cr1 Cu0.5 Fe1 Ni1 Ti0.5,FCC+BCC,CAST,,7.1,,,C,25.0,1580.0,2389.0,,17.0,161.0,,,,10.1016/j.jallcom.2008.11.059,2008
13,Al0.75 Co1 Cr1 Cu0.25 Fe1 Ni1 Ti0.5,FCC+BCC,CAST,,6.8,,,C,25.0,1900.0,2697.0,,12.0,164.0,,,,10.1016/j.jallcom.2008.11.059,2008
13,Co1 Cr1 Cu1 Fe1 Ni1 Ti0.5,FCC,CAST,,7.8,,,C,25.0,700.0,1650.0,,29.0,93.0,,,,10.1016/j.jallcom.2008.11.059,2008
14,Al1 Co1 Cr1 Fe1 Ni1 Ti1,BCC+BCC,CAST,,6.2,,,C,25.0,1860.0,2580.0,10.7,9.0,90.0,,,,10.1063/1.2734517,
14,Al1 Co1 Cr1 Fe1 Ni1 Ti0.5,BCC+BCC,CAST,,6.4,,178.0,C,25.0,2260.0,3140.0,24.4,23.0,178.0,,,,10.1063/1.2734517,
14,Al0.667 Co0.667 Cr0.667 Fe0.667 Ni0.667 Ti1,BCC+Laves (C14),CAST,,6.1,,,C,25.0,2220.0,2720.0,6.6,5.0,160.0,,,,10.1063/1.2734517,
15,Al1 Co1 Cr1 Fe1 Ni1 Ti1 V1 Zr1,,CAST,,6.3,,780.0,,25.0,,,,,,,,,10.1002/adem.200300567,
15,Al1 Co1 Fe1 Ni1 Ti1 V1 Zr1,BCC,CAST,,6.2,,790.0,,25.0,,,,,143.0,,,,10.1002/adem.200300567,
15,Al1 Fe1 Ni1 Ti1 V1 Zr1,BCC,CAST,,5.9,,800.0,,25.0,,,,,132.0,,,,10.1002/adem.200300567,
15,Co1 Cr1 Cu1 Fe1 Ni1 Ti1 V1 Zr1,,CAST,,7.1,,680.0,,25.0,,,,,168.0,,,,10.1002/adem.200300567,
15,Co1 Cr1 Fe1 Mo1 Ni1 Ti1 V1 Zr1,,CAST,,7.3,,850.0,,25.0,,,,,193.0,,,,10.1002/adem.200300567,
15,Co1 Cu1 Fe1 Ni1 Ti1 V1 Zr1,,CAST,,7.1,,630.0,,25.0,,,,,,,,,10.1002/adem.200300567,
15,Co1 Fe1 Mo1 Ni1 Ti1 V1 Zr1,,CAST,,7.3,,790.0,,25.0,,,,,,,,,10.1002/adem.200300567,
15,Cu1 Fe1 Ni1 Ti1 V1 Zr1,,CAST,,6.8,,590.0,,25.0,,,,,142.0,,,,10.1002/adem.200300567,
15,Fe1 Mo1 Ni1 Ti1 V1 Zr1,BCC+Sec.,CAST,,7.1,,740.0,,25.0,,,,,,,,,10.1002/adem.200300567,
16,Al0.1 Co1 Cr1 Fe1 Mn1 Ni1,FCC,CAST,,7.9,,180.0,,25.0,,,,,216.0,,,,10.1016/j.actamat.2013.09.037,2013
16,Al0.2 Co1 Cr1 Fe1 Mn1 Ni1,FCC,CAST,,7.7,,171.0,T,25.0,220.0,,56.0,,214.0,,,,10.1016/j.actamat.2013.09.037,2013
16,Al0.38 Co1 Cr1 Fe1 Mn1 Ni1,FCC,CAST,,7.5,,182.0,T,25.0,244.0,,45.0,,209.0,,,,10.1016/j.actamat.2013.09.037,2013
16,Al0.43 Co1 Cr1 Fe1 Mn1 Ni1,FCC+BCC,CAST,,7.4,,183.0,T,25.0,285.0,,35.0,,208.0,,,,10.1016/j.actamat.2013.09.037,2013
16,Al0.49 Co1 Cr1 Fe1 Mn1 Ni1,FCC+BCC,CAST,,7.4,,220.0,T,25.0,331.0,,29.0,,206.0,,,,10.1016/j.actamat.2013.09.037,2013
16,Al0.56 Co1 Cr1 Fe1 Mn1 Ni1,FCC+BCC,CAST,,7.3,,278.0,T,25.0,526.0,,16.0,,204.0,,,,10.1016/j.actamat.2013.09.037,2013
16,Al0.62 Co1 Cr1 Fe1 Mn1 Ni1,FCC+BCC,CAST,,7.2,,405.0,T,25.0,833.0,,5.0,,203.0,,,,10.1016/j.actamat.2013.09.037,2013
16,Al0.68 Co1 Cr1 Fe1 Mn1 Ni1,FCC+BCC,CAST,,7.2,,486.0,,25.0,,,,,202.0,,,,10.1016/j.actamat.2013.09.037,2013
16,Al0.75 Co1 Cr1 Fe1 Mn1 Ni1,FCC+BCC,CAST,,7.1,,530.0,,25.0,,,,,200.0,,,,10.1016/j.actamat.2013.09.037,2013
16,Al0.81 Co1 Cr1 Fe1 Mn1 Ni1,FCC+BCC,CAST,,7.0,,539.0,,25.0,,,,,199.0,,,,10.1016/j.actamat.2013.09.037,2013
16,Al0.88 Co1 Cr1 Fe1 Mn1 Ni1,FCC+BCC,CAST,,7.0,,533.0,,25.0,,,,,197.0,,,,10.1016/j.actamat.2013.09.037,2013
16,Al0.95 Co1 Cr1 Fe1 Mn1 Ni1,FCC+BCC,CAST,,6.9,,535.0,,25.0,,,,,196.0,,,,10.1016/j.actamat.2013.09.037,2013
16,Al1 Co0.8 Cr0.8 Fe0.8 Mn0.8 Ni0.8,BCC,CAST,,6.6,,539.0,,25.0,,,,,190.0,,,,10.1016/j.actamat.2013.09.037,2013
16,Co1 Cr1 Fe1 Mn1 Ni1,FCC,CAST,,8.0,,176.0,T,25.0,208.0,,62.0,,219.0,,,,10.1016/j.actamat.2013.09.037,2013
17,Co1 Cr1 Fe1 Mn1 Ni1,FCC,CAST,300.0,8.0,,144.0,C,25.0,,,,,,,,,10.1016/j.jallcom.2014.12.157,2014
17,Co1 Cr1 Fe1 Mn1 Ni1,FCC,ANNEAL,350.0,8.0,,135.0,C,25.0,230.0,,,75.0,219.0,,,,10.1016/j.jallcom.2014.12.157,2014
17,Co1 Cr1 Fe1 Mn1 Ni1 V0.25,FCC,CAST,120.0,7.9,,151.0,C,25.0,,,,,,,,,10.1016/j.jallcom.2014.12.157,2014
17,Co1 Cr1 Fe1 Mn1 Ni1 V0.25,,ANNEAL,130.0,7.9,,144.0,C,25.0,200.0,,,75.0,215.0,,,,10.1016/j.jallcom.2014.12.157,2014
17,Co1 Cr1 Fe1 Mn1 Ni1 V0.5,FCC,CAST,220.0,7.8,,186.0,C,25.0,,,,,,,,,10.1016/j.jallcom.2014.12.157,2014
17,Co1 Cr1 Fe1 Mn1 Ni1 V0.5,FCC,ANNEAL,250.0,7.8,,275.0,C,25.0,620.0,,,75.0,211.0,,,,10.1016/j.jallcom.2014.12.157,2014
17,Co1 Cr1 Fe1 Mn1 Ni1 V0.75,FCC+Sec.,ANNEAL,500.0,7.7,,380.0,C,25.0,740.0,1325.0,,7.8,,,,,10.1016/j.jallcom.2014.12.157,2014
17,Co1 Cr1 Fe1 Mn1 Ni1 V0.75,FCC+Sec.,CAST,500.0,7.7,,342.0,C,25.0,,,,,,,,,10.1016/j.jallcom.2014.12.157,2014
17,Co1 Cr1 Fe1 Mn1 Ni1 V1,FCC+Sec.,ANNEAL,12.0,7.7,,636.0,C,25.0,1660.0,1845.0,,0.5,,,,,10.1016/j.jallcom.2014.12.157,2014
17,Co1 Cr1 Fe1 Mn1 Ni1 V1,FCC+Sec.,CAST,,7.7,,650.0,C,25.0,,,,,,,,,10.1016/j.jallcom.2014.12.157,2014
18,Al0.2 Cr0.667 Fe1 Mn0.667 Ni0.333,FCC+BCC,CAST,,7.2,,297.0,,25.0,,,,,213.0,,,,10.1016/j.msea.2010.05.052,2010
18,Al0.333 Cr0.667 Fe1 Mn0.667 Ni0.333,BCC,CAST,,7.0,,396.0,,25.0,,,,,206.0,,,,10.1016/j.msea.2010.05.052,2010
19,Al1 Cr1 Fe1 Ni1,,CAST,,6.3,,472.0,C,25.0,1406.0,2927.0,,29.0,190.0,,,,10.1016/j.jallcom.2013.03.253,2013
19,Al1 Cr1 Fe1 Mo1 Ni1,B2+Sec.,CAST,,7.2,,905.0,,25.0,,,,,,,,,10.1016/j.jallcom.2013.03.253,2013
19,Al1 Cr1 Fe1 Mo0.2 Ni1,,CAST,,6.5,,549.0,C,25.0,1487.0,3222.0,,29.0,197.0,,,,10.1016/j.jallcom.2013.03.253,2013
19,Al1 Cr1 Fe1 Mo0.5 Ni1,,CAST,,6.8,,622.0,C,25.0,1749.0,2644.0,,13.0,205.0,,,,10.1016/j.jallcom.2013.03.253,2013
19,Al1 Cr1 Fe1 Mo0.8 Ni1,B2+Sec.,CAST,,7.0,,854.0,C,25.0,1513.0,1513.0,,0.0,,,,,10.1016/j.jallcom.2013.03.253,2013
20,Al0.3 Co1 Cr1 Cu1 Fe1,FCC,,,7.7,,180.0,,25.0,,,,,194.0,,,,10.3166/acsm.31.633-648,
20,Al0.5 Co1 Cr1 Cu1 Fe1,FCC,,,7.4,,207.0,,25.0,,,,,187.0,,,,10.3166/acsm.31.633-648,
20,Al0.8 Co1 Cr1 Cu1 Fe1,FCC+BCC,,,7.0,,271.0,,25.0,,,,,177.0,,,,10.3166/acsm.31.633-648,
20,Al1 Co0.769 Cr0.769 Cu0.769 Fe0.769,FCC+BCC,,,6.5,,476.0,,25.0,,,,,165.0,,,,10.3166/acsm.31.633-648,
20,Al1 Co0.667 Cr0.667 Cu0.667 Fe0.667,FCC+BCC,,,6.3,,510.0,,25.0,,,,,167.0,,,,10.3166/acsm.31.633-648,
20,Al1 Co0.556 Cr0.556 Cu0.556 Fe0.556,FCC+BCC,,,6.0,,557.0,,25.0,,,,,155.0,,,,10.3166/acsm.31.633-648,
20,Al1 Co0.5 Cr0.5 Cu0.5 Fe0.5,FCC+BCC,,,5.9,,567.0,,25.0,,,,,152.0,,,,10.3166/acsm.31.633-648,
20,Al1 Co0.435 Cr0.435 Cu0.435 Fe0.435,FCC+BCC,,,5.7,,603.0,,25.0,,,,,147.0,,,,10.3166/acsm.31.633-648,
20,Al1 Co0.4 Cr0.4 Cu0.4 Fe0.4,FCC+BCC,,,5.6,,624.0,,25.0,,,,,144.0,,,,10.3166/acsm.31.633-648,
20,Al1 Co0.357 Cr0.357 Cu0.357 Fe0.357,BCC,,,5.5,,657.0,,25.0,,,,,140.0,,,,10.3166/acsm.31.633-648,
20,Al1 Co0.333 Cr0.333 Cu0.333 Fe0.333,BCC,,,5.4,,644.0,,25.0,,,,,138.0,,,,10.3166/acsm.31.633-648,
20,Al1 Co1 Cr1 Cu1 Fe1,FCC+BCC,,,6.8,,407.0,,25.0,,,,,172.0,,,,10.3166/acsm.31.633-648,
20,Co1 Cr1 Cu1 Fe1,FCC,,,8.2,,134.0,,25.0,,,,,206.0,,,,10.3166/acsm.31.633-648,
21,Co1 Cr1 Cu0.5 Fe1 Ni1,FCC,CAST,,8.3,,172.0,,25.0,,,,,214.0,,,,10.1016/j.intermet.2010.03.030,2010
22,Co1 Cr1 Cu1 Fe1 Ni1 Ti1,FCC,CAST,,7.4,,,C,25.0,1272.0,1272.0,2.0,0.0,77.0,,,,10.1016/j.intermet.2006.08.005,2006
22,Co1 Cr1 Cu1 Fe1 Ni1 Ti0.5,FCC,CAST,,7.8,,,C,25.0,700.0,1650.0,22.0,21.6,99.0,,,,10.1016/j.intermet.2006.08.005,2006
22,Co1 Cr1 Cu1 Fe1 Ni1 Ti0.8,FCC+Laves (C14),CAST,,7.6,,,C,25.0,1042.0,1848.0,3.0,2.11,128.0,,,,10.1016/j.intermet.2006.08.005,2006
23,Al0.5 B0.2 Co1 Cr1 Cu1 Fe1 Ni1,,CAST,,7.7,,415.0,,25.0,,,,,,,,,10.1149/1.2744133,
23,Al0.5 B0.6 Co1 Cr1 Cu1 Fe1 Ni1,,CAST,,7.7,,505.0,,25.0,,,,,,,,,10.1149/1.2744133,
23,Al0.5 B1 Co1 Cr1 Cu1 Fe1 Ni1,,CAST,,7.8,,736.0,,25.0,,,,,,,,,10.1149/1.2744133,
23,Al0.5 Co1 Cr1 Cu1 Fe1 Ni1,,CAST,,7.6,,300.0,,25.0,,,,,193.0,,,,10.1149/1.2744133,
24,Al0.5 Co1 Cr1 Cu1 Fe1 Ni1,FCC,CAST,,7.6,,225.0,,25.0,,,,,193.0,,,,10.2320/matertrans.47.1395,
24,Al0.5 Co1 Cr1 Cu1 Fe1 Ni1 Ti1,FCC+BCC+Sec.,CAST,,7.0,,636.0,,25.0,,,,,,,,,10.2320/matertrans.47.1395,
24,Al0.5 Co1 Cr1 Cu1 Fe1 Ni1 Ti0.2,FCC,CAST,,7.5,,272.0,,25.0,,,,,191.0,,,,10.2320/matertrans.47.1395,
24,Al0.5 Co1 Cr1 Cu1 Fe1 Ni1 Ti0.4,FCC,CAST,,7.3,,321.0,,25.0,,,,,188.0,,,,10.2320/matertrans.47.1395,
24,Al0.5 Co1 Cr1 Cu1 Fe1 Ni1 Ti0.6,FCC+BCC,CAST,,7.2,,458.0,,25.0,,,,,186.0,,,,10.2320/matertrans.47.1395,
24,Al0.5 Co1 Cr1 Cu1 Fe1 Ni1 Ti0.8,FCC+Sec.,CAST,,7.1,,590.0,,25.0,,,,,184.0,,,,10.2320/matertrans.47.1395,