IDENTIFIER: Reference ID,FORMULA,PROPERTY: Microstructure,PROPERTY: Processing method,PROPERTY: BCC/FCC/other,PROPERTY: grain size ($\mu$m),PROPERTY: Exp. Density (g/cm$^3$),PROPERTY: Computed Density (g/cm$^3$),PROPERTY: HV,PROPERTY: Type of test,PROPERTY: Test temperature ($^\circ$C),PROPERTY: YS (MPa),PROPERTY: UTS (MPa),PROPERTY: Elongation (%),PROPERTY: Elongation plastic (%),PROPERTY: Exp. Young modulus (GPa),PROPERTY: Computed Young modulus (GPa),PROPERTY: O content (wppm),PROPERTY: N content (wppm),PROPERTY: C content (wppm),REFERENCE: doi,REFERENCE: year,REFERENCE: title
123,Al0.774 Fe1 Mn0.903 Ni0.484 Ti0.026,,CAST,other,,,6.6,330.0,,,,,,,,171,,,,10.1155/2019/2157592,2019,Effect of Heat Treatment and Titanium Addition on the Microstructure and Mechanical Properties of Cast Fe31Mn28 Ni15Al24.5Tix High-Entropy Alloys
123,Al0.774 Fe1 Mn0.903 Ni0.484 Ti0.097,,CAST,other,,,6.6,500.0,,,,,,,,169,,,,10.1155/2019/2157592,2019,Effect of Heat Treatment and Titanium Addition on the Microstructure and Mechanical Properties of Cast Fe31Mn28 Ni15Al24.5Tix High-Entropy Alloys
123,Al0.774 Fe1 Mn0.903 Ni0.484,,ANNEAL,other,,,6.6,340.0,,,,,,,,171,,,,10.1155/2019/2157592,2019,Effect of Heat Treatment and Titanium Addition on the Microstructure and Mechanical Properties of Cast Fe31Mn28 Ni15Al24.5Tix High-Entropy Alloys
123,Al0.774 Fe1 Mn0.903 Ni0.484 Ti0.026,,ANNEAL,other,,,6.6,410.0,,,,,,,,171,,,,10.1155/2019/2157592,2019,Effect of Heat Treatment and Titanium Addition on the Microstructure and Mechanical Properties of Cast Fe31Mn28 Ni15Al24.5Tix High-Entropy Alloys
123,Al0.774 Fe1 Mn0.903 Ni0.484 Ti0.097,,ANNEAL,other,,,6.6,495.0,,,,,,,,169,,,,10.1155/2019/2157592,2019,Effect of Heat Treatment and Titanium Addition on the Microstructure and Mechanical Properties of Cast Fe31Mn28 Ni15Al24.5Tix High-Entropy Alloys
123,Al0.774 Fe1 Mn0.903 Ni0.484,,ANNEAL,other,,,6.6,330.0,,,,,,,,171,,,,10.1155/2019/2157592,2019,Effect of Heat Treatment and Titanium Addition on the Microstructure and Mechanical Properties of Cast Fe31Mn28 Ni15Al24.5Tix High-Entropy Alloys
123,Al0.774 Fe1 Mn0.903 Ni0.484 Ti0.026,,ANNEAL,other,,,6.6,330.0,,,,,,,,171,,,,10.1155/2019/2157592,2019,Effect of Heat Treatment and Titanium Addition on the Microstructure and Mechanical Properties of Cast Fe31Mn28 Ni15Al24.5Tix High-Entropy Alloys
123,Al0.774 Fe1 Mn0.903 Ni0.484 Ti0.097,,ANNEAL,other,,,6.6,490.0,,,,,,,,169,,,,10.1155/2019/2157592,2019,Effect of Heat Treatment and Titanium Addition on the Microstructure and Mechanical Properties of Cast Fe31Mn28 Ni15Al24.5Tix High-Entropy Alloys
124,Al1 C1 Co1 Cr1 Fe1 Ni1,,POWDER,other,,,6.3,,,,,,,,,,,,,10.1080/00325899.2019.1576389,2019,Microstructural evolution and mechanical properties of AlCrFeNiCoC high entropy alloy produced via spark plasma sintering
125,Cr1 Cu1 Fe1 Ni1 Ti1,,CAST,other,,,7.5,,,,,,,,,187,,,,10.1007/s11106-019-00012-z,2019,"The Influence of Synthesis Conditions on the Phase Composition, Structure, and Properties of the High-Entropy Ti–Cr–Fe–Ni–Cu Alloy"
125,Cr1 Cu1 Fe1 Ni1 Ti1,,WROUGHT,other,,,7.5,,,,,,,,,187,,,,10.1007/s11106-019-00012-z,2019,"The Influence of Synthesis Conditions on the Phase Composition, Structure, and Properties of the High-Entropy Ti–Cr–Fe–Ni–Cu Alloy"
126,Co1 Cr1 Fe1 Mn1 Ni1,Other,POWDER,other,0.03,7.753,8.1,435.0,C,25.0,1100.0,,47.0,,,219,,,,10.1080/00325899.2018.1554834,2018,Microstructure and properties of CrMnFeCoNi high-entropy alloy prepared by mechanical alloying and spark plasma sintering
128,Al0.5 Cr1 Cu1 Fe1 Ni1,FCC,CAST,FCC,,,7.6,226.0,,,,,,,,190,,,,10.1007/s11665-018-3822-8,2018,Effect of Cold Deformation and Heat Treatment on the Microstructure and Mechanical Behavior of High Entropy Alloy CuCrFeNi2Al0.5
128,Al0.5 Cr1 Cu1 Fe1 Ni1,FCC,WROUGHT,FCC,,,7.6,287.0,,,,,,,,190,,,,10.1007/s11665-018-3822-8,2018,Effect of Cold Deformation and Heat Treatment on the Microstructure and Mechanical Behavior of High Entropy Alloy CuCrFeNi2Al0.5
129,Hf1 Mo1 Nb1 Ta1 Ti1 Zr1,BCC,CAST,BCC,,,10.0,,C,25.0,1512.0,,12.0,,,147,,,,10.3390/e21010015,2018,"Effects of Mo, Nb, Ta, Ti, and Zr on Mechanical Properties of Equiatomic Hf-Mo-Nb-Ta-Ti-Zr Alloys"
129,Hf1 Nb1 Ta1 Ti1 Zr1,BCC,CAST,BCC,,,9.9,,C,25.0,929.0,,50.0,,,111,,,,10.3390/e21010015,2018,"Effects of Mo, Nb, Ta, Ti, and Zr on Mechanical Properties of Equiatomic Hf-Mo-Nb-Ta-Ti-Zr Alloys"
129,Hf1 Mo1 Ta1 Ti1 Zr1,BCC,CAST,BCC,,,10.3,,C,25.0,1600.0,,4.0,,,155,,,,10.3390/e21010015,2018,"Effects of Mo, Nb, Ta, Ti, and Zr on Mechanical Properties of Equiatomic Hf-Mo-Nb-Ta-Ti-Zr Alloys"
129,Hf1 Mo1 Nb1 Ti1 Zr1,BCC,CAST,BCC,,,8.6,,C,25.0,1351.0,,20.0,,,139,,,,10.3390/e21010015,2018,"Effects of Mo, Nb, Ta, Ti, and Zr on Mechanical Properties of Equiatomic Hf-Mo-Nb-Ta-Ti-Zr Alloys"
129,Hf1 Mo1 Nb1 Ta1 Zr1,BCC,CAST,BCC,,,11.1,,C,25.0,1524.0,,16.0,,,153,,,,10.3390/e21010015,2018,"Effects of Mo, Nb, Ta, Ti, and Zr on Mechanical Properties of Equiatomic Hf-Mo-Nb-Ta-Ti-Zr Alloys"
129,Hf1 Mo1 Nb1 Ta1 Ti1,BCC,CAST,BCC,,,10.7,,C,25.0,1369.0,,27.0,,,163,,,,10.3390/e21010015,2018,"Effects of Mo, Nb, Ta, Ti, and Zr on Mechanical Properties of Equiatomic Hf-Mo-Nb-Ta-Ti-Zr Alloys"
129,Hf1 Mo1 Nb1 Ta1 Ti1 Zr1,BCC,CAST,BCC,,,10.0,,C,800.0,1007.0,,,,,147,,,,10.3390/e21010015,2018,"Effects of Mo, Nb, Ta, Ti, and Zr on Mechanical Properties of Equiatomic Hf-Mo-Nb-Ta-Ti-Zr Alloys"
129,Hf1 Nb1 Ta1 Ti1 Zr1,BCC,CAST,BCC,,,9.9,,C,800.0,535.0,,,,,111,,,,10.3390/e21010015,2018,"Effects of Mo, Nb, Ta, Ti, and Zr on Mechanical Properties of Equiatomic Hf-Mo-Nb-Ta-Ti-Zr Alloys"
129,Hf1 Mo1 Ta1 Ti1 Zr1,BCC,CAST,BCC,,,10.3,,C,800.0,1045.0,,,,,155,,,,10.3390/e21010015,2018,"Effects of Mo, Nb, Ta, Ti, and Zr on Mechanical Properties of Equiatomic Hf-Mo-Nb-Ta-Ti-Zr Alloys"
129,Hf1 Mo1 Nb1 Ti1 Zr1,BCC,CAST,BCC,,,8.6,,C,800.0,829.0,,,,,139,,,,10.3390/e21010015,2018,"Effects of Mo, Nb, Ta, Ti, and Zr on Mechanical Properties of Equiatomic Hf-Mo-Nb-Ta-Ti-Zr Alloys"
129,Hf1 Mo1 Nb1 Ta1 Zr1,BCC,CAST,BCC,,,11.1,,C,800.0,1005.0,,,,,153,,,,10.3390/e21010015,2018,"Effects of Mo, Nb, Ta, Ti, and Zr on Mechanical Properties of Equiatomic Hf-Mo-Nb-Ta-Ti-Zr Alloys"
129,Hf1 Mo1 Nb1 Ta1 Ti1,BCC,CAST,BCC,,,10.7,,C,800.0,822.0,,,,,163,,,,10.3390/e21010015,2018,"Effects of Mo, Nb, Ta, Ti, and Zr on Mechanical Properties of Equiatomic Hf-Mo-Nb-Ta-Ti-Zr Alloys"
129,Hf1 Mo1 Nb1 Ta1 Ti1 Zr1,BCC,CAST,BCC,,,10.0,,C,1000.0,814.0,,,,,147,,,,10.3390/e21010015,2018,"Effects of Mo, Nb, Ta, Ti, and Zr on Mechanical Properties of Equiatomic Hf-Mo-Nb-Ta-Ti-Zr Alloys"
129,Hf1 Nb1 Ta1 Ti1 Zr1,BCC,CAST,BCC,,,9.9,,C,1000.0,295.0,,,,,111,,,,10.3390/e21010015,2018,"Effects of Mo, Nb, Ta, Ti, and Zr on Mechanical Properties of Equiatomic Hf-Mo-Nb-Ta-Ti-Zr Alloys"
129,Hf1 Mo1 Ta1 Ti1 Zr1,BCC,CAST,BCC,,,10.3,,C,1000.0,855.0,,,,,155,,,,10.3390/e21010015,2018,"Effects of Mo, Nb, Ta, Ti, and Zr on Mechanical Properties of Equiatomic Hf-Mo-Nb-Ta-Ti-Zr Alloys"
129,Hf1 Mo1 Nb1 Ti1 Zr1,BCC,CAST,BCC,,,8.6,,C,1000.0,721.0,,,,,139,,,,10.3390/e21010015,2018,"Effects of Mo, Nb, Ta, Ti, and Zr on Mechanical Properties of Equiatomic Hf-Mo-Nb-Ta-Ti-Zr Alloys"
129,Hf1 Mo1 Nb1 Ta1 Zr1,BCC,CAST,BCC,,,11.1,,C,1000.0,927.0,,,,,153,,,,10.3390/e21010015,2018,"Effects of Mo, Nb, Ta, Ti, and Zr on Mechanical Properties of Equiatomic Hf-Mo-Nb-Ta-Ti-Zr Alloys"
129,Hf1 Mo1 Nb1 Ta1 Ti1,BCC,CAST,BCC,,,10.7,,C,1000.0,778.0,,,,,163,,,,10.3390/e21010015,2018,"Effects of Mo, Nb, Ta, Ti, and Zr on Mechanical Properties of Equiatomic Hf-Mo-Nb-Ta-Ti-Zr Alloys"
129,Hf1 Mo1 Nb1 Ta1 Ti1 Zr1,BCC,CAST,BCC,,,10.0,,C,1200.0,556.0,,,,,147,,,,10.3390/e21010015,2018,"Effects of Mo, Nb, Ta, Ti, and Zr on Mechanical Properties of Equiatomic Hf-Mo-Nb-Ta-Ti-Zr Alloys"
129,Hf1 Nb1 Ta1 Ti1 Zr1,BCC,CAST,BCC,,,9.9,,C,1200.0,92.0,,,,,111,,,,10.3390/e21010015,2018,"Effects of Mo, Nb, Ta, Ti, and Zr on Mechanical Properties of Equiatomic Hf-Mo-Nb-Ta-Ti-Zr Alloys"
129,Hf1 Mo1 Ta1 Ti1 Zr1,BCC,CAST,BCC,,,10.3,,C,1200.0,404.0,,,,,155,,,,10.3390/e21010015,2018,"Effects of Mo, Nb, Ta, Ti, and Zr on Mechanical Properties of Equiatomic Hf-Mo-Nb-Ta-Ti-Zr Alloys"
129,Hf1 Mo1 Nb1 Ti1 Zr1,BCC,CAST,BCC,,,8.6,,C,1200.0,301.0,,,,,139,,,,10.3390/e21010015,2018,"Effects of Mo, Nb, Ta, Ti, and Zr on Mechanical Properties of Equiatomic Hf-Mo-Nb-Ta-Ti-Zr Alloys"
129,Hf1 Mo1 Nb1 Ta1 Zr1,BCC,CAST,BCC,,,11.1,,C,1200.0,694.0,,,,,153,,,,10.3390/e21010015,2018,"Effects of Mo, Nb, Ta, Ti, and Zr on Mechanical Properties of Equiatomic Hf-Mo-Nb-Ta-Ti-Zr Alloys"
129,Hf1 Mo1 Nb1 Ta1 Ti1,BCC,CAST,BCC,,,10.7,,C,1200.0,699.0,,,,,163,,,,10.3390/e21010015,2018,"Effects of Mo, Nb, Ta, Ti, and Zr on Mechanical Properties of Equiatomic Hf-Mo-Nb-Ta-Ti-Zr Alloys"
129,Hf1 Mo1 Nb1 Ta1 Zr1,BCC,CAST,BCC,,,11.1,,C,1400.0,278.0,,,,,153,,,,10.3390/e21010015,2018,"Effects of Mo, Nb, Ta, Ti, and Zr on Mechanical Properties of Equiatomic Hf-Mo-Nb-Ta-Ti-Zr Alloys"
129,Hf1 Mo1 Nb1 Ta1 Ti1,BCC,CAST,BCC,,,10.7,,C,1400.0,367.0,,,,,163,,,,10.3390/e21010015,2018,"Effects of Mo, Nb, Ta, Ti, and Zr on Mechanical Properties of Equiatomic Hf-Mo-Nb-Ta-Ti-Zr Alloys"
130,Co1 Cr1 Fe1 Ni1,FCC,POWDER,FCC,0.0276,,8.2,,,,,,,,,225,,,,10.3390/coatings9010016,2018,Microstructure and Properties of CoCrFeNi(WC) High-Entropy Alloy Coatings Prepared Using Mechanical Alloying and Hot Pressing Sintering
130,C0.111 Co1 Cr1 Fe1 Ni1 W0.111,FCC,POWDER,FCC,0.0189,7.24 ,8.3,475.0,,,,,,,,,,,,10.3390/coatings9010016,2018,Microstructure and Properties of CoCrFeNi(WC) High-Entropy Alloy Coatings Prepared Using Mechanical Alloying and Hot Pressing Sintering
130,C0.429 Co1 Cr1 Fe1 Ni1 W0.429,FCC,POWDER,FCC,0.0182,8.39 ,8.7,531.0,,,,,,,,,,,,10.3390/coatings9010016,2018,Microstructure and Properties of CoCrFeNi(WC) High-Entropy Alloy Coatings Prepared Using Mechanical Alloying and Hot Pressing Sintering
131,Al0.267 Co1 Cr0.667 Fe0.667 Ni0.667 Ti0.2,,POWDER,other,,,7.6,515.0,C,25.0,2012.0,,,17.52 ,,205,,,,10.5755/j01.ms.25.3.19452,2019,Enhancement of Mechanical Properties and Corrosion Resistance of Ultra-Fine Grain Al0.4FeCrCo1.5NiTi0.3 High-Entropy Alloy by MA and SPS Technologies
132,Hf1 Nb1 Ta1 Ti1 Zr1,BCC,CAST,BCC,,,9.9,,T,25.0,1438.0,1218.0,5.0,,91.5,111,,,,10.1007/s11661-018-4646-8,2018,Effect of Cold Deformation and Annealing on the Microstructure and Tensile Properties of a HfNbTaTiZr Refractory High Entropy Alloy
132,Hf1 Nb1 Ta1 Ti1 Zr1,BCC,OTHER,BCC,,,9.9,,T,25.0,1159.0,1127.0,4.7,,99.2,111,,,,10.1007/s11661-018-4646-8,2018,Effect of Cold Deformation and Annealing on the Microstructure and Tensile Properties of a HfNbTaTiZr Refractory High Entropy Alloy
132,Hf1 Nb1 Ta1 Ti1 Zr1,BCC,OTHER,BCC,,,9.9,,T,25.0,1134.0,1134.0,7.6,,109.1,111,,,,10.1007/s11661-018-4646-8,2018,Effect of Cold Deformation and Annealing on the Microstructure and Tensile Properties of a HfNbTaTiZr Refractory High Entropy Alloy
132,Hf1 Nb1 Ta1 Ti1 Zr1,BCC,OTHER,BCC,,,9.9,,T,25.0,1094.0,1066.0,6.0,,105.3,111,,,,10.1007/s11661-018-4646-8,2018,Effect of Cold Deformation and Annealing on the Microstructure and Tensile Properties of a HfNbTaTiZr Refractory High Entropy Alloy
132,Hf1 Nb1 Ta1 Ti1 Zr1,BCC,OTHER,BCC,,,9.9,,T,25.0,1071.0,964.0,4.6,,91.6,111,,,,10.1007/s11661-018-4646-8,2018,Effect of Cold Deformation and Annealing on the Microstructure and Tensile Properties of a HfNbTaTiZr Refractory High Entropy Alloy
132,Hf1 Nb1 Ta1 Ti1 Zr1,BCC,OTHER,BCC,24.4,,9.9,,T,25.0,1107.0,977.0,13.9,,92.6,111,,,,10.1007/s11661-018-4646-8,2018,Effect of Cold Deformation and Annealing on the Microstructure and Tensile Properties of a HfNbTaTiZr Refractory High Entropy Alloy
132,Hf1 Nb1 Ta1 Ti1 Zr1,BCC,OTHER,BCC,31.3,,9.9,,T,25.0,1115.0,830.0,18.5,,92.6,111,,,,10.1007/s11661-018-4646-8,2018,Effect of Cold Deformation and Annealing on the Microstructure and Tensile Properties of a HfNbTaTiZr Refractory High Entropy Alloy
132,Hf1 Nb1 Ta1 Ti1 Zr1,BCC,OTHER,BCC,38.4,,9.9,,T,25.0,1114.0,935.0,12.2,,101.3,111,,,,10.1007/s11661-018-4646-8,2018,Effect of Cold Deformation and Annealing on the Microstructure and Tensile Properties of a HfNbTaTiZr Refractory High Entropy Alloy
132,Hf1 Nb1 Ta1 Ti1 Zr1,BCC,OTHER,BCC,50.1,,9.9,,,,,,,,,111,,,,10.1007/s11661-018-4646-8,2018,Effect of Cold Deformation and Annealing on the Microstructure and Tensile Properties of a HfNbTaTiZr Refractory High Entropy Alloy
132,Hf1 Nb1 Ta1 Ti1 Zr1,BCC,OTHER,BCC,21.9,,9.9,,,,,,,,,111,,,,10.1007/s11661-018-4646-8,2018,Effect of Cold Deformation and Annealing on the Microstructure and Tensile Properties of a HfNbTaTiZr Refractory High Entropy Alloy
132,Hf1 Nb1 Ta1 Ti1 Zr1,BCC,OTHER,BCC,75.5,,9.9,,,,,,,,,111,,,,10.1007/s11661-018-4646-8,2018,Effect of Cold Deformation and Annealing on the Microstructure and Tensile Properties of a HfNbTaTiZr Refractory High Entropy Alloy
133,Al1 Nb1 Ti1 Zr1,B2,CAST,other,250.0,5.85,5.6,422.0,C,25.0,1509.0,,8.6,,,90,,,,10.1080/02670836.2018.1446267,2018,Microstructure and mechanical properties of a novel refractory AlNbTiZr high-entropy alloy
133,Al1 Nb1 Ti1 Zr1,,ANNEAL,other,,,5.6,418.0,C,25.0,1579.0,,17.8,,,90,,,,10.1080/02670836.2018.1446267,2018,Microstructure and mechanical properties of a novel refractory AlNbTiZr high-entropy alloy
134,Al1 Nb1 Ti1 V1 Zr0.5,,,other,,5.64,5.6,,C,25.0,1480.0,,50.0,,,101,,,,10.1016/j.matlet.2015.08.099,2015,An AlNbTiVZr0.5 high-entropy alloy combining high specific strength and good ductility
135,Al1 Nb1 Ti1 Zr1,,,other,,5.79,5.6,539.6,C,25.0,1080.0,,5.9,,,90,,,,10.1179/1743284715Y.0000000032,2015,"Effect of Al on structure and mechanical properties of AlxNbTiVZr (x = 0, 0.5, 1, 1.5) high entropy alloys"
136,Nb1 Ti1 V1 Zr1,,,other,,6.52,6.4,335.0,C,25.0,1105.0,,50.0,,,104,,,,10.1016/j.actamat.2012.11.032,2013,"Low-density, refractory multi-principal element alloys of the Cr–Nb–Ti–V–Zr system: Microstructure and phase analysis"
136,Cr1 Nb1 Ti1 Zr1,,,other,,6.67,6.7,418.0,C,25.0,1260.0,,6.0,,,142,,,,10.1016/j.actamat.2012.11.032,2013,"Low-density, refractory multi-principal element alloys of the Cr–Nb–Ti–V–Zr system: Microstructure and phase analysis"