Alloy composition,FORMULA,IDENTIFIER: Reference ID,REFERENCE: doi,PROPERTY: Processing method,PROPERTY: Microstructure,PROPERTY: O content (wppm),PROPERTY: N content (wppm),PROPERTY: C content (wppm),PROPERTY: grain size ($\mu$m),PROPERTY: Exp. Density (g/cm$^3$),PROPERTY: Calculated Density (g/cm$^3$),PROPERTY: HV,PROPERTY: Type of test,PROPERTY: Test temperature ($^\circ$C),PROPERTY: YS (MPa),PROPERTY: UTS (MPa),PROPERTY: Elongation (%),PROPERTY: Elongation plastic (%),PROPERTY: Exp. Young modulus (GPa),PROPERTY: Calculated Young modulus (GPa),REFERENCE: year
,Hf1 Nb1 Ta1 Ti1 Zr1,130,10.1007/s11661-018-4646-8,OTHER,BCC,,,,,,9.9,,T,25.0,1159.0,,,,99.2,107.0,2018
,Hf1 Nb1 Ta1 Ti1 Zr1,130,10.1007/s11661-018-4646-8,OTHER,BCC,,,,,,9.9,,T,25.0,1134.0,,,,109.1,107.0,2018
,Hf1 Nb1 Ta1 Ti1 Zr1,130,10.1007/s11661-018-4646-8,OTHER,BCC,,,,,,9.9,,T,25.0,1094.0,,,,105.3,107.0,2018
,Hf1 Nb1 Ta1 Ti1 Zr1,130,10.1007/s11661-018-4646-8,OTHER,BCC,,,,,,9.9,,T,25.0,1071.0,,,,91.6,107.0,2018
,Hf1 Nb1 Ta1 Ti1 Zr1,130,10.1007/s11661-018-4646-8,OTHER,BCC,,,,24.4,,9.9,,T,25.0,1107.0,,,,92.6,107.0,2018
,Hf1 Nb1 Ta1 Ti1 Zr1,130,10.1007/s11661-018-4646-8,OTHER,BCC,,,,31.3,,9.9,,T,25.0,1115.0,,,,92.6,107.0,2018
,Hf1 Nb1 Ta1 Ti1 Zr1,130,10.1007/s11661-018-4646-8,OTHER,BCC,,,,38.4,,9.9,,T,25.0,1114.0,,,,101.3,107.0,2018
,Hf1 Nb1 Ta1 Ti1 Zr1,130,10.1007/s11661-018-4646-8,OTHER,BCC,,,,50.1,,9.9,,,,,,,,,107.0,2018
,Hf1 Nb1 Ta1 Ti1 Zr1,130,10.1007/s11661-018-4646-8,OTHER,BCC,,,,21.9,,9.9,,,,,,,,,107.0,2018
,Hf1 Nb1 Ta1 Ti1 Zr1,130,10.1007/s11661-018-4646-8,OTHER,BCC,,,,75.5,,9.9,,,,,,,,,107.0,2018
Hf1 Nb1 Ta1 Zr1,,,,,,,,,,,,,,,,,,,,,
,Hf1 Nb1 Ta1 Zr1,87,10.1016/j.actamat.2016.01.018,ANNEAL,BCC+HCP,,,,,,11.1,571.0,C,25.0,2310.0,,0.3,,,,2016
,Hf1 Nb1 Ta1 Zr1,87,10.1016/j.actamat.2016.01.018,ANNEAL,BCC+HCP,,,,,,11.1,536.0,C,25.0,2100.0,2200.0,3.5,,,,2016
,Hf1 Nb1 Ta1 Zr1,87,10.1016/j.actamat.2016.01.018,ANNEAL,BCC+HCP,,,,,,11.1,,C,25.0,2020.0,2030.0,1.7,,,,2016
,Hf1 Nb1 Ta1 Zr1,87,10.1016/j.actamat.2016.01.018,ANNEAL,BCC+HCP,,,,,,11.1,550.0,C,25.0,1950.0,2010.0,2.2,,,,2016
,Hf1 Nb1 Ta1 Zr1,87,10.1016/j.actamat.2016.01.018,CAST,BCC,,,,,,11.1,365.0,C,25.0,1315.0,1800.0,21.6,,,105.0,2016
Hf1 Nb1 Ti1 V1 Zr1,,,,,,,,,,,,,,,,,,,,,
,Hf1 Nb1 Ti1 V1 Zr1,70,10.1016/j.ijrmhm.2014.07.009,ANNEAL,BCC+Laves,,,,,,8.1,,C,25.0,1157.0,1468.0,,,,,2014
,Hf1 Nb1 Ti1 V1 Zr1,70,10.1016/j.ijrmhm.2014.07.009,ANNEAL,BCC,,,,,,8.1,,C,25.0,1253.0,1393.0,,,,95.0,2014
,Hf1 Nb1 Ti1 V1 Zr1,70,10.1016/j.ijrmhm.2014.07.009,ANNEAL,BCC,,,,,,8.1,,C,25.0,1140.0,1463.0,,,,95.0,2014
,Hf1 Nb1 Ti1 V1 Zr1,70,10.1016/j.ijrmhm.2014.07.009,ANNEAL,BCC,,,,,,8.1,,C,25.0,1120.0,1376.0,30.0,,,95.0,2014
,Hf1 Nb1 Ti1 V1 Zr1,70,10.1016/j.ijrmhm.2014.07.009,CAST,BCC+Laves,,,,,,8.1,,C,25.0,1170.0,1463.0,29.6,,,,2014
Hf1 Nb1 Ti1 Zr1,,,,,,,,,,,,,,,,,,,,,
,Hf1 Nb1 Ti1 Zr1,55,10.1016/j.matlet.2014.05.134,CAST,BCC,,,,,,8.4,,T,25.0,879.0,969.0,,14.9,,89.0,2014
,Hf1 Nb1 Ti1 Zr1,156,10.1016/j.intermet.2019.04.003,WROUGHT,BCC,,,,,,8.4,,,,,,,,69.7,89.0,2019
,Hf1 Nb1 Ti1 Zr1,231,10.1007/s12598-019-01310-6,CAST,BCC,,,,,,8.4,351.0,C,25.0,1000.0,,52.0,,,89.0,2019
,Hf1 Nb1 Ti1 Zr1,231,10.1007/s12598-019-01310-6,ANNEAL,BCC,,,,50.0,,8.4,,,,,,,,,89.0,2019
,Hf1 Nb1 Ti1 Zr1,231,10.1007/s12598-019-01310-6,CAST,BCC,,,,,,8.4,,C,800.0,303.0,,51.0,,,89.0,2019
,Hf1 Nb1 Ti1 Zr1,231,10.1007/s12598-019-01310-6,CAST,BCC,,,,,,8.4,,C,1000.0,154.0,,51.0,,,89.0,2019
Hf1 Sc1 Ti1 Y1 Zr1,,,,,,,,,,,,,,,,,,,,,
,Hf1 Sc1 Ti1 Y1 Zr1,112,10.1007/s00339-019-2484-1,CAST,Other,,,,,,6.2,256.0,C,25.0,793.0,,15.7,,,,2019
Hf1 Sc1 Ti1 Zr1,,,,,,,,,,,,,,,,,,,,,
,Hf1 Sc1 Ti1 Zr1,112,10.1007/s00339-019-2484-1,CAST,Other,,,,,,6.8,233.0,C,25.0,1001.0,,21.9,,,,2019
Hf1 Ta0.4 Ti1 Zr1,,,,,,,,,,,,,,,,,,,,,
,Hf1 Ta0.4 Ti1 Zr1,88,10.1002/adma.201701678,CAST,BCC+HCP,,,,,,9.2,,T,25.0,400.0,1100.0,,,,,2017
Hf1 Ta0.5 Ti1 Zr1,,,,,,,,,,,,,,,,,,,,,
,Hf1 Ta0.5 Ti1 Zr1,88,10.1002/adma.201701678,CAST,BCC+HCP,,,,,,9.4,,T,25.0,700.0,1100.0,,,,,2017
Hf1 Ta0.6 Ti1 Zr1,,,,,,,,,,,,,,,,,,,,,
,Hf1 Ta0.6 Ti1 Zr1,88,10.1002/adma.201701678,CAST,BCC+HCP,,,,,,9.6,,T,25.0,800.0,1100.0,,,,,2017
Hf1 Ta1 Ti1 Zr1,,,,,,,,,,,,,,,,,,,,,
,Hf1 Ta1 Ti1 Zr1,88,10.1002/adma.201701678,CAST,BCC,,,,,,10.2,,T,25.0,1500.0,1500.0,,,,107.0,2017
Hf1 Ti1 Y1 Zr1,,,,,,,,,,,,,,,,,,,,,
,Hf1 Ti1 Y1 Zr1,112,10.1007/s00339-019-2484-1,CAST,Other,,,,,,7.0,241.0,C,25.0,554.0,,17.7,,,,2019
Hf1 Ti1 Zr1,,,,,,,,,,,,,,,,,,,,,
,Hf1 Ti1 Zr1,112,10.1007/s00339-019-2484-1,CAST,Other,,,,,,8.3,211.0,C,25.0,773.0,,17.0,,,,2019
Mo0.1 Nb1 Ti1 V0.3 Zr1,,,,,,,,,,,,,,,,,,,,,
,Mo0.1 Nb1 Ti1 V0.3 Zr1,58,10.1016/j.matdes.2015.06.072,ANNEAL,BCC,,,,,,6.6,,C,25.0,932.0,,,45.0,,102.0,2015
Mo0.3 Nb1 Ti1 V0.3 Zr1,,,,,,,,,,,,,,,,,,,,,
,Mo0.3 Nb1 Ti1 V0.3 Zr1,58,10.1016/j.matdes.2015.06.072,ANNEAL,BCC,,,,,,6.8,,C,25.0,1312.0,,,50.0,,112.0,2015
Mo0.3 Nb1 Ti1 V1 Zr1,,,,,,,,,,,,,,,,,,,,,
,Mo0.3 Nb1 Ti1 V1 Zr1,58,10.1016/j.matdes.2015.06.072,ANNEAL,BCC,,,,,,6.7,,C,25.0,1289.0,,,42.0,,114.0,2015
Mo0.333 Nb0.333 Ti0.333 V1 Zr0.333,,,,,,,,,,,,,,,,,,,,,
,Mo0.333 Nb0.333 Ti0.333 V1 Zr0.333,59,10.1007/s11837-012-0366-5,CAST,BCC,,,,,,6.9,,C,25.0,1418.0,2508.0,24.0,,,138.0,2012
Mo0.5 Nb0.5 Ti0.5 V1 Zr0.5,,,,,,,,,,,,,,,,,,,,,
,Mo0.5 Nb0.5 Ti0.5 V1 Zr0.5,59,10.1007/s11837-012-0366-5,CAST,BCC,,,,,,7.0,,C,25.0,1538.0,3176.0,23.0,,,139.0,2012
Mo0.5 Nb1 Ti1 V0.3 Zr1,,,,,,,,,,,,,,,,,,,,,
,Mo0.5 Nb1 Ti1 V0.3 Zr1,58,10.1016/j.matdes.2015.06.072,ANNEAL,BCC,,,,,,6.9,,C,25.0,1301.0,,,43.0,,122.0,2015
Mo0.5 Nb1 Ti1 V1 Zr1,,,,,,,,,,,,,,,,,,,,,
,Mo0.5 Nb1 Ti1 V1 Zr1,58,10.1016/j.matdes.2015.06.072,ANNEAL,BCC,,,,,,6.8,,C,25.0,1473.0,,,32.0,,122.0,2015
Mo0.667 Nb0.667 Ti0.667 V1 Zr0.667,,,,,,,,,,,,,,,,,,,,,
,Mo0.667 Nb0.667 Ti0.667 V1 Zr0.667,59,10.1007/s11837-012-0366-5,CAST,BCC,,,,,,7.1,,C,25.0,1735.0,3300.0,20.0,,,140.0,2012
Mo0.7 Nb1 Ti1 V0.3 Zr1,,,,,,,,,,,,,,,,,,,,,
,Mo0.7 Nb1 Ti1 V0.3 Zr1,58,10.1016/j.matdes.2015.06.072,ANNEAL,BCC,,,,,,7.1,,C,25.0,1436.0,,,27.0,,130.0,2015
Mo0.7 Nb1 Ti1 V1 Zr1,,,,,,,,,,,,,,,,,,,,,
,Mo0.7 Nb1 Ti1 V1 Zr1,58,10.1016/j.matdes.2015.06.072,ANNEAL,BCC,,,,,,6.9,,C,25.0,1706.0,,,32.0,,130.0,2015
Mo1 Nb0.5 Ti0.5 V0.5 Zr0.5,,,,,,,,,,,,,,,,,,,,,
,Mo1 Nb0.5 Ti0.5 V0.5 Zr0.5,58,10.1016/j.matdes.2015.06.072,ANNEAL,BCC,,,,,,7.6,,C,25.0,1765.0,,,12.0,,169.0,2015
Mo1 Nb0.588 Ti0.588 V0.588 Zr0.588,,,,,,,,,,,,,,,,,,,,,
,Mo1 Nb0.588 Ti0.588 V0.588 Zr0.588,58,10.1016/j.matdes.2015.06.072,ANNEAL,BCC,,,,,,7.5,,C,25.0,1645.0,,,15.0,,161.0,2015
Mo1 Nb0.667 Ti0.667 V0.2 Zr0.667,,,,,,,,,,,,,,,,,,,,,
,Mo1 Nb0.667 Ti0.667 V0.2 Zr0.667,58,10.1016/j.matdes.2015.06.072,ANNEAL,BCC,,,,,,7.5,,C,25.0,1576.0,,,8.0,,159.0,2015
Mo1 Nb0.667 Ti0.667 V0.667 Zr0.667,,,,,,,,,,,,,,,,,,,,,
,Mo1 Nb0.667 Ti0.667 V0.667 Zr0.667,58,10.1016/j.matdes.2015.06.072,ANNEAL,BCC,,,,,,7.4,,C,25.0,1603.0,,,20.0,,156.0,2015
Mo1 Nb0.769 Ti0.769 V0.231 Zr0.769,,,,,,,,,,,,,,,,,,,,,
,Mo1 Nb0.769 Ti0.769 V0.231 Zr0.769,58,10.1016/j.matdes.2015.06.072,ANNEAL,BCC,,,,,,7.4,,C,25.0,1603.0,,,20.0,,153.0,2015
Mo1 Nb0.769 Ti0.769 V0.769 Zr0.769,,,,,,,,,,,,,,,,,,,,,
,Mo1 Nb0.769 Ti0.769 V0.769 Zr0.769,58,10.1016/j.matdes.2015.06.072,ANNEAL,BCC,,,,,,7.3,,C,25.0,1496.0,,,30.0,,150.0,2015
Mo1 Nb1 Re0.5 W1,,,,,,,,,,,,,,,,,,,,,
,Mo1 Nb1 Re0.5 W1,219,10.1016/j.jallcom.2018.11.111,CAST,BCC,,,,,,13.7,473.0,C,25.0,896.0,,10.4,7.08,,298.0,2019
Mo1 Nb1 Si0.25 Ta1 W1,,,,,,,,,,,,,,,,,,,,,
,Mo1 Nb1 Si0.25 Ta1 W1,251,10.1007/s10853-019-03567-9,POWDER,BCC+Sec.,,,,,,12.9,567.0,C,25.0,1826.0,,16.5,10.5,,,2019
,Mo1 Nb1 Si0.25 Ta1 W1,251,10.1007/s10853-019-03567-9,POWDER,BCC+Sec.,,,,,,12.9,425.0,,200.0,,,,,,,2019
,Mo1 Nb1 Si0.25 Ta1 W1,251,10.1007/s10853-019-03567-9,POWDER,BCC+Sec.,,,,,,12.9,420.0,,400.0,,,,,,,2019
,Mo1 Nb1 Si0.25 Ta1 W1,251,10.1007/s10853-019-03567-9,POWDER,BCC+Sec.,,,,,,12.9,425.0,,600.0,,,,,,,2019
,Mo1 Nb1 Si0.25 Ta1 W1,251,10.1007/s10853-019-03567-9,POWDER,BCC+Sec.,,,,,,12.9,399.2,,800.0,,,,,,,2019
Mo1 Nb1 Si0.5 Ta1 W1,,,,,,,,,,,,,,,,,,,,,
,Mo1 Nb1 Si0.5 Ta1 W1,251,10.1007/s10853-019-03567-9,POWDER,BCC+Sec.,,,,,,12.2,697.0,C,25.0,1883.0,,11.0,5.8,,,2019
,Mo1 Nb1 Si0.5 Ta1 W1,251,10.1007/s10853-019-03567-9,POWDER,BCC+Sec.,,,,,,12.2,535.0,,200.0,,,,,,,2019
,Mo1 Nb1 Si0.5 Ta1 W1,251,10.1007/s10853-019-03567-9,POWDER,BCC+Sec.,,,,,,12.2,560.0,,400.0,,,,,,,2019
,Mo1 Nb1 Si0.5 Ta1 W1,251,10.1007/s10853-019-03567-9,POWDER,BCC+Sec.,,,,,,12.2,540.0,,600.0,,,,,,,2019
,Mo1 Nb1 Si0.5 Ta1 W1,251,10.1007/s10853-019-03567-9,POWDER,BCC+Sec.,,,,,,12.2,550.5,,800.0,,,,,,,2019
Mo1 Nb1 Si0.75 Ta1 W1,,,,,,,,,,,,,,,,,,,,,
,Mo1 Nb1 Si0.75 Ta1 W1,251,10.1007/s10853-019-03567-9,POWDER,BCC+Sec.,,,,,,11.6,682.6,C,25.0,2483.0,,6.2,1.6,,,2019
,Mo1 Nb1 Si0.75 Ta1 W1,251,10.1007/s10853-019-03567-9,POWDER,BCC+Sec.,,,,,,11.6,640.0,,200.0,,,,,,,2019
,Mo1 Nb1 Si0.75 Ta1 W1,251,10.1007/s10853-019-03567-9,POWDER,BCC+Sec.,,,,,,11.6,600.0,,400.0,,,,,,,2019
,Mo1 Nb1 Si0.75 Ta1 W1,251,10.1007/s10853-019-03567-9,POWDER,BCC+Sec.,,,,,,11.6,650.0,,600.0,,,,,,,2019
,Mo1 Nb1 Si0.75 Ta1 W1,251,10.1007/s10853-019-03567-9,POWDER,BCC+Sec.,,,,,,11.6,597.3,,800.0,,,,,,,2019
,Mo1 Nb1 Si0.75 Ta1 W1,251,10.1007/s10853-019-03567-9,POWDER,BCC+Sec.,,,,,,11.6,,C,1200.0,960.0,,22.7,,,,2019
Mo1 Nb1 Ta1 Ti0.25 W1,,,,,,,,,,,,,,,,,,,,,
,Mo1 Nb1 Ta1 Ti0.25 W1,89,10.1016/j.msea.2017.12.004,CAST,BCC,,,,,,13.1,478.3,C,25.0,1109.0,1197.0,,,,242.0,2018
Mo1 Nb1 Ta1 Ti0.5 W1,,,,,,,,,,,,,,,,,,,,,
,Mo1 Nb1 Ta1 Ti0.5 W1,89,10.1016/j.msea.2017.12.004,CAST,BCC,,,,,,12.6,481.2,C,25.0,1211.0,1578.0,,,,234.0,2018
Mo1 Nb1 Ta1 Ti0.75 W1,,,,,,,,,,,,,,,,,,,,,
,Mo1 Nb1 Ta1 Ti0.75 W1,89,10.1016/j.msea.2017.12.004,CAST,BCC,,,,,,12.2,495.6,C,25.0,1304.0,1593.0,,,,228.0,2018
Mo1 Nb1 Ta1 Ti1,,,,,,,,,,,,,,,,,,,,,
,Mo1 Nb1 Ta1 Ti1,238,10.1016/j.actamat.2019.06.006,ANNEAL,BCC,80.0,5.0,,,,10.0,,C,20.0,1210.0,,,,,179.0,2019
,Mo1 Nb1 Ta1 Ti1,238,10.1016/j.actamat.2019.06.006,ANNEAL,BCC,80.0,5.0,,,,10.0,,C,60.0,1071.0,,,,,179.0,2019
,Mo1 Nb1 Ta1 Ti1,238,10.1016/j.actamat.2019.06.006,ANNEAL,BCC,80.0,5.0,,,,10.0,,C,100.0,1029.0,,,,,179.0,2019
,Mo1 Nb1 Ta1 Ti1,238,10.1016/j.actamat.2019.06.006,ANNEAL,BCC,80.0,5.0,,,,10.0,,C,200.0,868.0,,,,,179.0,2019
,Mo1 Nb1 Ta1 Ti1,238,10.1016/j.actamat.2019.06.006,ANNEAL,BCC,80.0,5.0,,,,10.0,,C,300.0,732.0,,,,,179.0,2019
,Mo1 Nb1 Ta1 Ti1,238,10.1016/j.actamat.2019.06.006,ANNEAL,BCC,80.0,5.0,,,,10.0,,C,400.0,685.0,,,,,179.0,2019
,Mo1 Nb1 Ta1 Ti1,238,10.1016/j.actamat.2019.06.006,ANNEAL,BCC,80.0,5.0,,,,10.0,,C,600.0,593.0,,,,,179.0,2019
,Mo1 Nb1 Ta1 Ti1,238,10.1016/j.actamat.2019.06.006,ANNEAL,BCC,80.0,5.0,,,,10.0,,C,800.0,564.0,,,,,179.0,2019
,Mo1 Nb1 Ta1 Ti1,238,10.1016/j.actamat.2019.06.006,ANNEAL,BCC,80.0,5.0,,,,10.0,,C,1000.0,539.0,,,,,179.0,2019
,Mo1 Nb1 Ta1 Ti1,265,10.1016/j.matdes.2018.06.003,ANNEAL,BCC,,,,,,10.0,407.0,,,,,,,,179.0,2018
,Mo1 Nb1 Ta1 Ti1,265,10.1016/j.matdes.2018.06.003,CAST,BCC,,,,,,10.0,431.0,,,,,,,,179.0,2018
Mo1 Nb1 Ta1 Ti1 V1,,,,,,,,,,,,,,,,,,,,,
,Mo1 Nb1 Ta1 Ti1 V1,90,10.1016/j.jallcom.2016.11.188,CAST,BCC,,,,,,9.4,,C,25.0,1400.0,2450.0,,,,171.0,2017
Mo1 Nb1 Ta1 Ti1 V1 W1,,,,,,,,,,,,,,,,,,,,,
,Mo1 Nb1 Ta1 Ti1 V1 W1,91,10.1016/j.intermet.2017.01.007,CAST,BCC,,,,,,11.0,,C,600.0,973.0,1590.0,,,,209.0,2017
,Mo1 Nb1 Ta1 Ti1 V1 W1,91,10.1016/j.intermet.2017.01.007,CAST,BCC,,,,,,11.0,,C,800.0,791.3,1180.0,,,,209.0,2017
,Mo1 Nb1 Ta1 Ti1 V1 W1,91,10.1016/j.intermet.2017.01.007,CAST,BCC,,,,,,11.0,,C,1000.0,752.8,1105.0,,,,209.0,2017
,Mo1 Nb1 Ta1 Ti1 V1 W1,91,10.1016/j.intermet.2017.01.007,CAST,BCC,,,,,,11.0,,C,1200.0,659.0,696.0,,,,209.0,2017
,Mo1 Nb1 Ta1 Ti1 V1 W1,91,10.1016/j.intermet.2017.01.007,CAST,BCC,,,,,,11.0,,C,25.0,1515.0,2135.0,,,,209.0,2017
,Mo1 Nb1 Ta1 Ti1 V1 W1,165,10.1016/j.actamat.2019.06.032,CAST,BCC,,,,,10.91,11.0,,C,23.0,1515.0,,,,,209.0,2019
,Mo1 Nb1 Ta1 Ti1 V1 W1,165,10.1016/j.actamat.2019.06.032,CAST,BCC,,,,,10.91,11.0,,C,1000.0,753.0,,,,,209.0,2019
,Mo1 Nb1 Ta1 Ti1 V1 W1,165,10.1016/j.actamat.2019.06.032,CAST,BCC,,,,,10.91,11.0,,C,1200.0,659.0,,,,,209.0,2019
Mo1 Nb1 Ta1 Ti1 W1,,,,,,,,,,,,,,,,,,,,,
,Mo1 Nb1 Ta1 Ti1 W1,89,10.1016/j.msea.2017.12.004,CAST,BCC,,,,,,11.8,507.5,C,25.0,1455.0,1910.0,,,,222.0,2018
,Mo1 Nb1 Ta1 Ti1 W1,91,10.1016/j.intermet.2017.01.007,CAST,BCC,,,,,,11.8,,C,600.0,689.0,1681.0,,,,222.0,2017
,Mo1 Nb1 Ta1 Ti1 W1,91,10.1016/j.intermet.2017.01.007,CAST,BCC,,,,,,11.8,,C,800.0,674.0,1618.0,,,,222.0,2017
,Mo1 Nb1 Ta1 Ti1 W1,91,10.1016/j.intermet.2017.01.007,CAST,BCC,,,,,,11.8,,C,1000.0,620.0,1426.0,,,,222.0,2017
,Mo1 Nb1 Ta1 Ti1 W1,91,10.1016/j.intermet.2017.01.007,CAST,BCC,,,,,,11.8,,C,1200.0,586.0,814.0,,,,222.0,2017
,Mo1 Nb1 Ta1 Ti1 W1,91,10.1016/j.intermet.2017.01.007,CAST,BCC,,,,,,11.8,,C,25.0,1343.0,2005.0,,,,222.0,2017
,Mo1 Nb1 Ta1 Ti1 W1,165,10.1016/j.actamat.2019.06.032,CAST,BCC,,,,,11.72,11.8,,C,23.0,1343.0,,,,,222.0,2019
,Mo1 Nb1 Ta1 Ti1 W1,165,10.1016/j.actamat.2019.06.032,CAST,BCC,,,,,11.72,11.8,,C,1000.0,620.0,,,,,222.0,2019
,Mo1 Nb1 Ta1 Ti1 W1,165,10.1016/j.actamat.2019.06.032,CAST,BCC,,,,,11.72,11.8,,C,1200.0,586.0,,,,,222.0,2019
,Mo1 Nb1 Ta1 Ti1 W1,265,10.1016/j.matdes.2018.06.003,ANNEAL,BCC,,,,,,11.8,482.0,,,,,,,,222.0,2018
,Mo1 Nb1 Ta1 Ti1 W1,265,10.1016/j.matdes.2018.06.003,CAST,BCC,,,,,,11.8,446.0,,,,,,,,222.0,2018
Mo1 Nb1 Ta1 Ti1 Zr1,,,,,,,,,,,,,,,,,,,,,
,Mo1 Nb1 Ta1 Ti1 Zr1,92,10.1016/j.msec.2016.12.057,CAST,BCC+BCC,,,,,,9.1,,C,25.0,1390.0,,,,,,2017
,Mo1 Nb1 Ta1 Ti1 Zr1,93,10.1016/j.scriptamat.2016.10.028,ANNEAL,BCC+BCC,,,,,,9.1,,C,25.0,1100.0,1200.0,,,,,2017
,Mo1 Nb1 Ta1 Ti1 Zr1,93,10.1016/j.scriptamat.2016.10.028,CAST,BCC+BCC,,,,,,9.1,,C,25.0,1375.0,1450.0,,,,,2017
Mo1 Nb1 Ta1 V1,,,,,,,,,,,,,,,,,,,,,
,Mo1 Nb1 Ta1 V1,56,10.3390/e18050189,ANNEAL,BCC,,,,200.0,,10.7,504.0,C,25.0,1525.0,2400.0,21.0,,,186.0,2016
Mo1 Nb1 Ta1 V1 W1,,,,,,,,,,,,,,,,,,,,,
,Mo1 Nb1 Ta1 V1 W1,57,10.1016/j.intermet.2011.01.004,CAST,BCC,,,,80.0,,12.4,536.0,C,25.0,1246.0,1270.0,2.0,,,229.0,2011
,Mo1 Nb1 Ta1 V1 W1,57,10.1016/j.intermet.2011.01.004,CAST,BCC,,,,,,12.4,,C,600.0,862.0,,13.0,,,229.0,2011
,Mo1 Nb1 Ta1 V1 W1,57,10.1016/j.intermet.2011.01.004,CAST,BCC,,,,,,12.4,,C,800.0,846.0,,17.0,,,229.0,2011
,Mo1 Nb1 Ta1 V1 W1,57,10.1016/j.intermet.2011.01.004,CAST,BCC,,,,,,12.4,,C,1000.0,842.0,,19.0,,,229.0,2011
,Mo1 Nb1 Ta1 V1 W1,57,10.1016/j.intermet.2011.01.004,CAST,BCC,,,,,,12.4,,C,1200.0,735.0,,7.5,,,229.0,2011
,Mo1 Nb1 Ta1 V1 W1,57,10.1016/j.intermet.2011.01.004,CAST,BCC,,,,,,12.4,,C,1400.0,656.0,,40.0,,,229.0,2011
,Mo1 Nb1 Ta1 V1 W1,57,10.1016/j.intermet.2011.01.004,CAST,BCC,,,,,,12.4,,C,1600.0,477.0,,40.0,,,229.0,2011
,Mo1 Nb1 Ta1 V1 W1,94,10.1016/j.msea.2017.12.021,POWDER,BCC,,,,,,12.4,,C,25.0,2612.0,3472.0,,,,229.0,2018
,Mo1 Nb1 Ta1 V1 W1,165,10.1016/j.actamat.2019.06.032,OTHER,BCC,,,,,12.29,12.4,,C,23.0,1246.0,,,,,229.0,2019
,Mo1 Nb1 Ta1 V1 W1,165,10.1016/j.actamat.2019.06.032,OTHER,BCC,,,,,12.29,12.4,,C,1000.0,842.0,,,,,229.0,2019
,Mo1 Nb1 Ta1 V1 W1,165,10.1016/j.actamat.2019.06.032,OTHER,BCC,,,,,12.29,12.4,,C,1200.0,735.0,,,,,229.0,2019
Mo1 Nb1 Ta1 W1,,,,,,,,,,,,,,,,,,,,,
,Mo1 Nb1 Ta1 W1,57,10.1016/j.intermet.2011.01.004,CAST,BCC,,,,200.0,,13.7,454.0,C,25.0,1058.0,1211.0,2.0,,,250.0,2011
,Mo1 Nb1 Ta1 W1,57,10.1016/j.intermet.2011.01.004,CAST,BCC,,,,,,13.7,,C,600.0,561.0,,40.0,,,250.0,2011
,Mo1 Nb1 Ta1 W1,57,10.1016/j.intermet.2011.01.004,CAST,BCC,,,,,,13.7,,C,800.0,552.0,,40.0,,,250.0,2011
,Mo1 Nb1 Ta1 W1,57,10.1016/j.intermet.2011.01.004,CAST,BCC,,,,,,13.7,,C,1000.0,548.0,,40.0,,,250.0,2011
,Mo1 Nb1 Ta1 W1,57,10.1016/j.intermet.2011.01.004,CAST,BCC,,,,,,13.7,,C,1200.0,506.0,,40.0,,,250.0,2011
,Mo1 Nb1 Ta1 W1,57,10.1016/j.intermet.2011.01.004,CAST,BCC,,,,,,13.7,,C,1400.0,421.0,,40.0,,,250.0,2011
,Mo1 Nb1 Ta1 W1,57,10.1016/j.intermet.2011.01.004,CAST,BCC,,,,,,13.7,,C,1600.0,405.0,,40.0,,,250.0,2011
,Mo1 Nb1 Ta1 W1,89,10.1016/j.msea.2017.12.004,CAST,BCC,,,,,,13.7,,C,25.0,996.0,1148.0,,,,250.0,2018
,Mo1 Nb1 Ta1 W1,165,10.1016/j.actamat.2019.06.032,OTHER,BCC,,,,,13.6,13.7,,C,23.0,996.0,,,,,250.0,2019
,Mo1 Nb1 Ta1 W1,165,10.1016/j.actamat.2019.06.032,OTHER,BCC,,,,,13.6,13.7,,C,1000.0,548.0,,,,,250.0,2019
,Mo1 Nb1 Ta1 W1,165,10.1016/j.actamat.2019.06.032,OTHER,BCC,,,,,13.6,13.7,,C,1200.0,506.0,,,,,250.0,2019
,Mo1 Nb1 Ta1 W1,251,10.1007/s10853-019-03567-9,POWDER,BCC,,,,,,13.7,504.5,C,25.0,1217.0,,7.5,3.8,,250.0,2019
,Mo1 Nb1 Ta1 W1,251,10.1007/s10853-019-03567-9,POWDER,BCC,,,,,,13.7,420.0,,200.0,,,,,,250.0,2019
,Mo1 Nb1 Ta1 W1,251,10.1007/s10853-019-03567-9,POWDER,BCC,,,,,,13.7,425.0,,400.0,,,,,,250.0,2019
,Mo1 Nb1 Ta1 W1,251,10.1007/s10853-019-03567-9,POWDER,BCC,,,,,,13.7,340.0,,600.0,,,,,,250.0,2019
,Mo1 Nb1 Ta1 W1,251,10.1007/s10853-019-03567-9,POWDER,BCC,,,,,,13.7,335.5,,800.0,,,,,,250.0,2019
Mo1 Nb1 Ti1,,,,,,,,,,,,,,,,,,,,,
,Mo1 Nb1 Ti1,165,10.1016/j.actamat.2019.06.032,OTHER,BCC,,,,,7.67,7.7,,C,23.0,1100.0,,,,,177.0,2019
,Mo1 Nb1 Ti1,165,10.1016/j.actamat.2019.06.032,OTHER,BCC,,,,,7.67,7.7,,C,1000.0,504.0,,,,,177.0,2019
,Mo1 Nb1 Ti1,165,10.1016/j.actamat.2019.06.032,OTHER,BCC,,,,,7.67,7.7,,C,1200.0,324.0,,,,,177.0,2019
Mo1 Nb1 Ti1 V0.25 Zr1,,,,,,,,,,,,,,,,,,,,,
,Mo1 Nb1 Ti1 V0.25 Zr1,59,10.1007/s11837-012-0366-5,CAST,BCC,,,,,,7.3,,C,25.0,1776.0,3893.0,30.0,,,142.0,2012
Mo1 Nb1 Ti1 V0.3 Zr1,,,,,,,,,,,,,,,,,,,,,
,Mo1 Nb1 Ti1 V0.3 Zr1,58,10.1016/j.matdes.2015.06.072,ANNEAL,BCC,,,,,,7.2,,C,25.0,1455.0,,,25.0,,142.0,2015
Mo1 Nb1 Ti1 V0.5 Zr1,,,,,,,,,,,,,,,,,,,,,
,Mo1 Nb1 Ti1 V0.5 Zr1,59,10.1007/s11837-012-0366-5,CAST,BCC,,,,,,7.2,,C,25.0,1647.0,3307.0,28.0,,,142.0,2012
Mo1 Nb1 Ti1 V0.75 Zr1,,,,,,,,,,,,,,,,,,,,,
,Mo1 Nb1 Ti1 V0.75 Zr1,59,10.1007/s11837-012-0366-5,CAST,BCC,,,,,,7.2,,C,25.0,1708.0,3929.0,29.0,,,141.0,2012
Mo1 Nb1 Ti1 V1,,,,,,,,,,,,,,,,,,,,,
,Mo1 Nb1 Ti1 V1,41,10.3390/e16020870,CAST,BCC,,,,,,7.3,441.0,C,25.0,1200.0,2050.0,26.0,,,167.0,2014
Mo1 Nb1 Ti1 V1 Zr1,,,,,,,,,,,,,,,,,,,,,
,Mo1 Nb1 Ti1 V1 Zr1,58,10.1016/j.matdes.2015.06.072,ANNEAL,BCC,,,,,,7.1,,C,25.0,1779.0,,,32.0,,141.0,2015
,Mo1 Nb1 Ti1 V1 Zr1,59,10.1007/s11837-012-0366-5,CAST,BCC,,,,,,7.1,,C,25.0,1786.0,3828.0,26.0,,,141.0,2012
,Mo1 Nb1 Ti1 V1 Zr1,165,10.1016/j.actamat.2019.06.032,OTHER,BCC+Laves,,,,,7.27,7.1,,C,23.0,1706.0,,,,,,2019
,Mo1 Nb1 Ti1 V1 Zr1,165,10.1016/j.actamat.2019.06.032,OTHER,BCC+Laves,,,,,7.27,7.1,,C,1000.0,467.0,,,,,,2019
,Mo1 Nb1 Ti1 V1 Zr1,165,10.1016/j.actamat.2019.06.032,OTHER,BCC+Laves,,,,,7.27,7.1,,C,1200.0,116.0,,,,,,2019
Mo1 Nb1 Ti1 Zr1,,,,,,,,,,,,,,,,,,,,,
,Mo1 Nb1 Ti1 Zr1,59,10.1007/s11837-012-0366-5,CAST,BCC,,,,,,7.3,,C,25.0,1592.0,3450.0,34.0,,,143.0,2012
Mo1 Ta1 Ti1 V1,,,,,,,,,,,,,,,,,,,,,
,Mo1 Ta1 Ti1 V1,86,10.4028/www.scientific.net/MSF.898.638,CAST,BCC,,,,,,9.6,,C,25.0,1221.0,1454.0,,,,189.0,2017
Nb0.333 Ta0.667 Ti0.667 Zr1,,,,,,,,,,,,,,,,,,,,,
,Nb0.333 Ta0.667 Ti0.667 Zr1,119,10.3390/e21020114,CAST,BCC+Sec.,,,,500.0,,8.6,489.0,T,25.0,,843.0,0.0,,93.0,,2019
Nb0.5 Ti0.5 V1 Zr0.5,,,,,,,,,,,,,,,,,,,,,
,Nb0.5 Ti0.5 V1 Zr0.5,45,10.1016/j.msea.2012.12.018,OTHER,BCC,,,,550.0,,6.4,304.0,C,25.0,918.0,,50.0,,,105.0,2013
,Nb0.5 Ti0.5 V1 Zr0.5,45,10.1016/j.msea.2012.12.018,OTHER,BCC,,,,,,6.4,,C,600.0,571.0,,50.0,,,105.0,2013
,Nb0.5 Ti0.5 V1 Zr0.5,45,10.1016/j.msea.2012.12.018,OTHER,BCC,,,,,,6.4,,C,800.0,240.0,,50.0,,,105.0,2013
,Nb0.5 Ti0.5 V1 Zr0.5,45,10.1016/j.msea.2012.12.018,OTHER,BCC,,,,,,6.4,,C,1000.0,72.0,,50.0,,,105.0,2013
Nb1 Re0.3 Ti1 Zr1,,,,,,,,,,,,,,,,,,,,,
,Nb1 Re0.3 Ti1 Zr1,165,10.1016/j.actamat.2019.06.032,OTHER,BCC+Laves,,,,,7.81,7.5,,C,23.0,1244.0,,,,,,2019
,Nb1 Re0.3 Ti1 Zr1,165,10.1016/j.actamat.2019.06.032,OTHER,BCC+Laves,,,,,7.81,7.5,,C,1000.0,323.0,,,,,,2019
,Nb1 Re0.3 Ti1 Zr1,165,10.1016/j.actamat.2019.06.032,OTHER,BCC+Laves,,,,,7.81,7.5,,C,1200.0,89.0,,,,,,2019
Nb1 Ta0.3 Ti1 Zr1,,,,,,,,,,,,,,,,,,,,,
,Nb1 Ta0.3 Ti1 Zr1,165,10.1016/j.actamat.2019.06.032,OTHER,BCC,,,,,7.81,7.4,,C,23.0,882.0,,,,,101.0,2019
,Nb1 Ta0.3 Ti1 Zr1,165,10.1016/j.actamat.2019.06.032,OTHER,BCC,,,,,7.81,7.4,,C,1000.0,274.0,,,,,101.0,2019
,Nb1 Ta0.3 Ti1 Zr1,165,10.1016/j.actamat.2019.06.032,OTHER,BCC,,,,,7.81,7.4,,C,1200.0,102.0,,,,,101.0,2019
Nb1 Ta0.667 Ti0.667 Zr0.333,,,,,,,,,,,,,,,,,,,,,
,Nb1 Ta0.667 Ti0.667 Zr0.333,119,10.3390/e21020114,CAST,BCC+Sec.,,,,500.0,,9.2,294.0,T,25.0,822.0,852.0,0.33,,127.0,,2019