Alloy composition,FORMULA,IDENTIFIER: Reference ID,REFERENCE: doi,PROPERTY: Processing method,PROPERTY: Microstructure,PROPERTY: O content (wppm),PROPERTY: N content (wppm),PROPERTY: C content (wppm),PROPERTY: grain size ($\mu$m),PROPERTY: Exp. Density (g/cm$^3$),PROPERTY: Calculated Density (g/cm$^3$),PROPERTY: HV,PROPERTY: Type of test,PROPERTY: Test temperature ($^\circ$C),PROPERTY: YS (MPa),PROPERTY: UTS (MPa),PROPERTY: Elongation (%),PROPERTY: Elongation plastic (%),PROPERTY: Exp. Young modulus (GPa),PROPERTY: Calculated Young modulus (GPa),REFERENCE: year
,Al0.312 Ca0.021 Li0.792 Mg1 Si0.021,103,10.3390/ma12071136,CAST,,,,,,1.52,1.4,,C,25.0,360.0,,9.0,,,,2019
Al0.312 Co0.625 Cr0.625 Cu0.625 Fe0.625 Ni0.625 Ti1,,,,,,,,,,,,,,,,,,,,,
,Al0.312 Co0.625 Cr0.625 Cu0.625 Fe0.625 Ni0.625 Ti1,24,10.2320/matertrans.47.1395,CAST,FCC+BCC+B2+Sec.,,,,,,6.7,657.0,,25.0,,,,,,,2006
Al0.312 Co0.625 Cr0.625 Cu0.625 Fe0.625 Ni0.625 V1,,,,,,,,,,,,,,,,,,,,,
,Al0.312 Co0.625 Cr0.625 Cu0.625 Fe0.625 Ni0.625 V1,25,10.1007/s11661-006-0081-3,CAST,BCC,,,,,,7.2,594.0,,25.0,,,,,,174.0,2006
Al0.333 Ca0.011 Li0.844 Mg1 Si0.033,,,,,,,,,,,,,,,,,,,,,
,Al0.333 Ca0.011 Li0.844 Mg1 Si0.033,103,10.3390/ma12071136,CAST,,,,,,1.5,1.4,,C,25.0,342.0,,44.0,,,,2019
Al0.333 Ca0.011 Li0.867 Mg1 Si0.011,,,,,,,,,,,,,,,,,,,,,
,Al0.333 Ca0.011 Li0.867 Mg1 Si0.011,103,10.3390/ma12071136,CAST,,,,,,1.46,1.4,,C,25.0,300.0,,63.0,,,,2019
Al0.333 Co0.333 Cu0.333 Fe0.333 Ni1,,,,,,,,,,,,,,,,,,,,,
,Al0.333 Co0.333 Cu0.333 Fe0.333 Ni1,263,10.1016/j.jmst.2018.12.014,CAST,FCC,,,,,,7.5,279.6,C,25.0,268.0,,,,,167.0,2019
Al0.333 Cr0.667 Fe1 Mn0.667 Ni0.333,,,,,,,,,,,,,,,,,,,,,
,Al0.333 Cr0.667 Fe1 Mn0.667 Ni0.333,18,10.1016/j.msea.2010.05.052,CAST,BCC,,,,,,7.0,396.0,,25.0,,,,,,201.0,2010
Al0.333 Nb0.667 Ta0.533 Ti1 V0.133 Zr0.667,,,,,,,,,,,,,,,,,,,,,
,Al0.333 Nb0.667 Ta0.533 Ti1 V0.133 Zr0.667,39,10.1007/s11837-014-1066-0,OTHER,BCC,,,,100.0,,7.6,530.0,C,25.0,2035.0,2105.0,5.0,,,109.0,2014
,Al0.333 Nb0.667 Ta0.533 Ti1 V0.133 Zr0.667,39,10.1007/s11837-014-1066-0,OTHER,BCC,,,,,,7.6,,C,800.0,796.0,851.0,50.0,,,109.0,2014
,Al0.333 Nb0.667 Ta0.533 Ti1 V0.133 Zr0.667,39,10.1007/s11837-014-1066-0,OTHER,BCC,,,,,,7.6,,C,1000.0,220.0,225.0,50.0,,,109.0,2014
Al0.343 Co0.514 Cr0.514 Fe1 Ni0.514,,,,,,,,,,,,,,,,,,,,,
,Al0.343 Co0.514 Cr0.514 Fe1 Ni0.514,195,10.1016/j.scriptamat.2016.04.014,CAST,BCC+B2,,,,,,7.2,,T,25.0,866.0,1223.0,7.9,,,,2016
,Al0.343 Co0.514 Cr0.514 Fe1 Ni0.514,195,10.1016/j.scriptamat.2016.04.014,CAST,,,,,,,7.2,,T,650.0,400.0,468.0,6.3,,,,2016
,Al0.343 Co0.514 Cr0.514 Fe1 Ni0.514,195,10.1016/j.scriptamat.2016.04.014,CAST,,,,,,,7.2,,T,700.0,220.0,340.0,5.4,,,,2016
,Al0.343 Co0.514 Cr0.514 Fe1 Ni0.514,195,10.1016/j.scriptamat.2016.04.014,CAST,,,,,,,7.2,,C,25.0,1166.0,,30.2,,,,2016
Al0.35 Cr0.5 Fe1 Mn0.625 Ni0.375,,,,,,,,,,,,,,,,,,,,,
,Al0.35 Cr0.5 Fe1 Mn0.625 Ni0.375,151,10.1016/j.jallcom.2018.08.093,CAST,B2+BCC,,,,175.0,,6.9,,C,25.0,942.0,,,,,,2019
,Al0.35 Cr0.5 Fe1 Mn0.625 Ni0.375,151,10.1016/j.jallcom.2018.08.093,CAST,B2+BCC,,,,,,6.9,,C,400.0,833.0,,,,,,2019
,Al0.35 Cr0.5 Fe1 Mn0.625 Ni0.375,151,10.1016/j.jallcom.2018.08.093,CAST,B2+BCC,,,,,,6.9,,C,600.0,326.0,,,,,,2019
Al0.357 Co0.714 Cr0.714 Cu0.714 Fe0.714 Ni0.714 Ti1,,,,,,,,,,,,,,,,,,,,,
,Al0.357 Co0.714 Cr0.714 Cu0.714 Fe0.714 Ni0.714 Ti1,24,10.2320/matertrans.47.1395,CAST,FCC+BCC+B2+Sec.,,,,,,6.8,664.0,,25.0,,,,,,,2006
Al0.357 Co0.714 Cr0.714 Cu0.714 Fe0.714 Ni0.714 V1,,,,,,,,,,,,,,,,,,,,,
,Al0.357 Co0.714 Cr0.714 Cu0.714 Fe0.714 Ni0.714 V1,25,10.1007/s11661-006-0081-3,CAST,BCC,,,,,,7.3,577.0,,25.0,,,,,,175.0,2006
Al0.364 Cr0.455 Fe0.455 Ni1,,,,,,,,,,,,,,,,,,,,,
,Al0.364 Cr0.455 Fe0.455 Ni1,245,10.1016/j.jallcom.2018.08.176,CAST,FCC+BCC+B2,,,,,,7.0,,T,25.0,479.0,956.0,12.7,,,,2019
Al0.375 Co1 Cr1 Fe1 Ni1,,,,,,,,,,,,,,,,,,,,,
,Al0.375 Co1 Cr1 Fe1 Ni1,54,10.1016/j.jallcom.2009.08.090,ANNEAL,FCC,,,,,,7.5,131.0,,25.0,,,,,,207.0,2009
,Al0.375 Co1 Cr1 Fe1 Ni1,54,10.1016/j.jallcom.2009.08.090,ANNEAL,FCC,,,,,,7.5,196.0,,25.0,,,,,,207.0,2009
Al0.38 Co1 Cr1 Fe1 Mn1 Ni1,,,,,,,,,,,,,,,,,,,,,
,Al0.38 Co1 Cr1 Fe1 Mn1 Ni1,16,10.1016/j.actamat.2013.09.037,CAST,FCC,,,,,,7.5,182.0,T,25.0,244.0,,45.0,,,205.0,2014
Al0.4 Cr0.5 Cu0.5 Fe0.5 Ni1,,,,,,,,,,,,,,,,,,,,,
,Al0.4 Cr0.5 Cu0.5 Fe0.5 Ni1,33,10.1063/1.3587228,,FCC,,,,,,7.3,,,25.0,,,,,,179.0,2011
Al0.4 Hf0.6 Nb1 Ta1 Ti1 Zr1,,,,,,,,,,,,,,,,,,,,,
,Al0.4 Hf0.6 Nb1 Ta1 Ti1 Zr1,39,10.1007/s11837-014-1066-0,OTHER,BCC,,,,140.0,,9.1,500.0,C,25.0,1841.0,2269.0,10.0,,,107.0,2014
,Al0.4 Hf0.6 Nb1 Ta1 Ti1 Zr1,39,10.1007/s11837-014-1066-0,OTHER,BCC,,,,,,9.1,,C,800.0,796.0,834.0,50.0,,,107.0,2014
,Al0.4 Hf0.6 Nb1 Ta1 Ti1 Zr1,39,10.1007/s11837-014-1066-0,OTHER,BCC,,,,,,9.1,,C,1000.0,298.0,455.0,50.0,,,107.0,2014
,Al0.4 Hf0.6 Nb1 Ta1 Ti1 Zr1,165,10.1016/j.actamat.2019.06.032,OTHER,BCC,,,,,9.08,9.1,,C,23.0,1841.0,,,,,107.0,2019
,Al0.4 Hf0.6 Nb1 Ta1 Ti1 Zr1,165,10.1016/j.actamat.2019.06.032,OTHER,BCC,,,,,9.08,9.1,,C,1000.0,298.0,,,,,107.0,2019
,Al0.4 Hf0.6 Nb1 Ta1 Ti1 Zr1,165,10.1016/j.actamat.2019.06.032,OTHER,BCC,,,,,9.08,9.1,,C,1200.0,89.0,,,,,107.0,2019
Al0.417 Co0.833 Cr0.833 Cu0.833 Fe0.833 Ni0.833 Ti1,,,,,,,,,,,,,,,,,,,,,
,Al0.417 Co0.833 Cr0.833 Cu0.833 Fe0.833 Ni0.833 Ti1,24,10.2320/matertrans.47.1395,CAST,FCC+BCC+Sec.,,,,,,6.9,646.0,,25.0,,,,,,,2006
Al0.417 Co0.833 Cr0.833 Cu0.833 Fe0.833 Ni0.833 V1,,,,,,,,,,,,,,,,,,,,,
,Al0.417 Co0.833 Cr0.833 Cu0.833 Fe0.833 Ni0.833 V1,25,10.1007/s11661-006-0081-3,CAST,BCC,,,,,,7.3,579.0,,25.0,,,,,,177.0,2006
Al0.429 Ca0.286 Li1 Mg1 Si0.143,,,,,,,,,,,,,,,,,,,,,
,Al0.429 Ca0.286 Li1 Mg1 Si0.143,103,10.3390/ma12071136,CAST,,,,,,1.57,1.4,,C,25.0,418.0,,13.0,,,,2019
Al0.429 Cr0.476 Fe0.476 Ni1,,,,,,,,,,,,,,,,,,,,,
,Al0.429 Cr0.476 Fe0.476 Ni1,245,10.1016/j.jallcom.2018.08.176,CAST,FCC+BCC+B2,,,,,,6.9,,T,25.0,610.0,1173.0,9.1,,,,2019
Al0.43 Co1 Cr1 Fe1 Mn1 Ni1,,,,,,,,,,,,,,,,,,,,,
,Al0.43 Co1 Cr1 Fe1 Mn1 Ni1,16,10.1016/j.actamat.2013.09.037,CAST,FCC+BCC,,,,,,7.4,183.0,T,25.0,285.0,,35.0,,,,2014
Al0.451 Co0.451 Cr0.451 Fe0.451 Ni1,,,,,,,,,,,,,,,,,,,,,
,Al0.451 Co0.451 Cr0.451 Fe0.451 Ni1,192,10.1016/j.actamat.2016.11.016,,L12+B2,,,,,,7.1,,T,25.0,545.0,1110.0,20.0,,,,2017
,Al0.451 Co0.451 Cr0.451 Fe0.451 Ni1,192,10.1016/j.actamat.2016.11.016,,,,,,,,7.1,,T,-70.0,570.0,1143.0,18.0,,,,2017
,Al0.451 Co0.451 Cr0.451 Fe0.451 Ni1,192,10.1016/j.actamat.2016.11.016,,,,,,,,7.1,,T,-192.0,700.0,1000.0,9.0,,,,2017
,Al0.451 Co0.451 Cr0.451 Fe0.451 Ni1,192,10.1016/j.actamat.2016.11.016,CAST,FCC+B2,,,,,,7.1,,T,25.0,545.0,1110.0,20.0,,,,2017
Al0.465 Co0.465 Cr0.465 Fe0.465 Ni1,,,,,,,,,,,,,,,,,,,,,
,Al0.465 Co0.465 Cr0.465 Fe0.465 Ni1,192,10.1016/j.actamat.2016.11.016,,L12+B2,,,,,,7.1,,T,25.0,545.0,1050.0,16.5,,,,2017
,Al0.465 Co0.465 Cr0.465 Fe0.465 Ni1,192,10.1016/j.actamat.2016.11.016,,,,,,,,7.1,,T,-70.0,595.0,1168.0,15.8,,,,2017
,Al0.465 Co0.465 Cr0.465 Fe0.465 Ni1,192,10.1016/j.actamat.2016.11.016,,,,,,,,7.1,,T,-192.0,700.0,1000.0,7.0,,,,2017
,Al0.465 Co0.465 Cr0.465 Fe0.465 Ni1,192,10.1016/j.actamat.2016.11.016,CAST,FCC+B2,,,,,,7.1,,T,25.0,545.0,1050.0,16.5,,,,2017
Al0.476 Co0.476 Cr0.476 Fe0.476 Ni1,,,,,,,,,,,,,,,,,,,,,
,Al0.476 Co0.476 Cr0.476 Fe0.476 Ni1,105,10.1038/s41467-019-08460-2,WROUGHT,FCC+B2,,,,,,7.1,,T,25.0,1263.0,,21.4,,,,2019
,Al0.476 Co0.476 Cr0.476 Fe0.476 Ni1,105,10.1038/s41467-019-08460-2,WROUGHT,FCC+B2,,,,,,7.1,,T,25.0,1154.0,,25.0,,,,2019
,Al0.476 Co0.476 Cr0.476 Fe0.476 Ni1,105,10.1038/s41467-019-08460-2,WROUGHT,FCC+B2,,,,,,7.1,,T,25.0,1490.0,,16.0,,,,2019
Al0.49 Co1 Cr1 Fe1 Mn1 Ni1,,,,,,,,,,,,,,,,,,,,,
,Al0.49 Co1 Cr1 Fe1 Mn1 Ni1,16,10.1016/j.actamat.2013.09.037,CAST,FCC+BCC,,,,,,7.4,220.0,T,25.0,331.0,,29.0,,,,2014
Al0.5 B0.2 Co1 Cr1 Cu1 Fe1 Ni1,,,,,,,,,,,,,,,,,,,,,
,Al0.5 B0.2 Co1 Cr1 Cu1 Fe1 Ni1,23,10.1149/1.2744133,CAST,,,,,,,7.5,415.0,,25.0,,,,,,,2007
Al0.5 B0.6 Co1 Cr1 Cu1 Fe1 Ni1,,,,,,,,,,,,,,,,,,,,,
,Al0.5 B0.6 Co1 Cr1 Cu1 Fe1 Ni1,23,10.1149/1.2744133,CAST,,,,,,,7.3,505.0,,25.0,,,,,,,2007
Al0.5 B1 Co1 Cr1 Cu1 Fe1 Ni1,,,,,,,,,,,,,,,,,,,,,
,Al0.5 B1 Co1 Cr1 Cu1 Fe1 Ni1,23,10.1149/1.2744133,CAST,,,,,,,7.1,736.0,,25.0,,,,,,,2007
Al0.5 Co0.5 Cr0.5 Fe0.5 Mo0.25 Ni1,,,,,,,,,,,,,,,,,,,,,
,Al0.5 Co0.5 Cr0.5 Fe0.5 Mo0.25 Ni1,11,10.1016/j.intermet.2012.09.008,CAST,FCC+B2+Sec.,,,,,,7.3,395.0,,25.0,,,,,,,2013
Al0.5 Co0.5 Cr0.5 Fe1 Mo0.25 Ni0.5,,,,,,,,,,,,,,,,,,,,,
,Al0.5 Co0.5 Cr0.5 Fe1 Mo0.25 Ni0.5,10,10.1016/j.wear.2009.10.013,CAST,BCC+Sec.,,,,,,7.2,639.0,,25.0,,,,,,,2010
Al0.5 Co0.5 Cu0.5 Fe0.5 Ni1,,,,,,,,,,,,,,,,,,,,,
,Al0.5 Co0.5 Cu0.5 Fe0.5 Ni1,263,10.1016/j.jmst.2018.12.014,CAST,FCC+BCC+B2,,,,,,7.3,299.2,C,25.0,544.0,,,,,,2019
Al0.5 Co1 Cr0.5 Fe0.5 Mo0.25 Ni0.5,,,,,,,,,,,,,,,,,,,,,
,Al0.5 Co1 Cr0.5 Fe0.5 Mo0.25 Ni0.5,9,10.1002/adem.200900171,CAST,FCC+BCC+Sec.,,,,200.0,,7.3,586.0,,25.0,,,,,,,2010
Al0.5 Co1 Cr1 Cu0.5 Fe1 Ni1 Ti0.5,,,,,,,,,,,,,,,,,,,,,
,Al0.5 Co1 Cr1 Cu0.5 Fe1 Ni1 Ti0.5,13,10.1016/j.jallcom.2008.11.059,CAST,FCC+BCC,,,,,,7.1,,C,25.0,1580.0,2389.0,,17.0,161.0,,2009
Al0.5 Co1 Cr1 Cu1 Fe1,,,,,,,,,,,,,,,,,,,,,
,Al0.5 Co1 Cr1 Cu1 Fe1,20,10.3166/acsm.31.633-648,,FCC,,,,,,7.4,207.0,,25.0,,,,,,187.0,2006
Al0.5 Co1 Cr1 Cu1 Fe1 Ni1,,,,,,,,,,,,,,,,,,,,,
,Al0.5 Co1 Cr1 Cu1 Fe1 Ni1,23,10.1149/1.2744133,CAST,,,,,,,7.6,300.0,,25.0,,,,,,,2007
,Al0.5 Co1 Cr1 Cu1 Fe1 Ni1,24,10.2320/matertrans.47.1395,CAST,FCC,,,,,,7.6,225.0,,25.0,,,,,,189.0,2006
,Al0.5 Co1 Cr1 Cu1 Fe1 Ni1,25,10.1007/s11661-006-0081-3,CAST,FCC,,,,,,7.6,215.0,,25.0,,,,,,189.0,2006
,Al0.5 Co1 Cr1 Cu1 Fe1 Ni1,64,10.1007/s11661-005-0218-9,CAST,FCC,,,,,,7.6,,C,1000.0,150.0,,,,,189.0,2005
,Al0.5 Co1 Cr1 Cu1 Fe1 Ni1,64,10.1007/s11661-005-0218-9,CAST,FCC,,,,,,7.6,,C,25.0,388.0,,,,,189.0,2005
,Al0.5 Co1 Cr1 Cu1 Fe1 Ni1,64,10.1007/s11661-005-0218-9,CAST,FCC,,,,,,7.6,,C,300.0,411.0,,,,,189.0,2005
,Al0.5 Co1 Cr1 Cu1 Fe1 Ni1,64,10.1007/s11661-005-0218-9,CAST,FCC,,,,,,7.6,,C,500.0,421.0,,,,,189.0,2005
,Al0.5 Co1 Cr1 Cu1 Fe1 Ni1,64,10.1007/s11661-005-0218-9,CAST,FCC,,,,,,7.6,,C,700.0,426.0,,,,,189.0,2005
,Al0.5 Co1 Cr1 Cu1 Fe1 Ni1,64,10.1007/s11661-005-0218-9,CAST,FCC,,,,,,7.6,,C,900.0,230.0,,,,,189.0,2005
,Al0.5 Co1 Cr1 Cu1 Fe1 Ni1,64,10.1007/s11661-005-0218-9,CAST,FCC,,,,,,7.6,,C,1100.0,80.0,,,,,189.0,2005
,Al0.5 Co1 Cr1 Cu1 Fe1 Ni1,172,10.1016/j.actamat.2015.07.004,WROUGHT,Other,,,,,,7.6,,T,25.0,1284.0,1344.0,7.6,,,,2015
,Al0.5 Co1 Cr1 Cu1 Fe1 Ni1,173,10.1016/j.jallcom.2009.10.088,WROUGHT,FCC,,,,,,7.6,,T,25.0,1290.0,1400.0,5.0,,,189.0,2010
,Al0.5 Co1 Cr1 Cu1 Fe1 Ni1,173,10.1016/j.jallcom.2009.10.088,WROUGHT,Other,,,,,,7.6,,T,25.0,650.0,790.0,27.0,,,,2010
,Al0.5 Co1 Cr1 Cu1 Fe1 Ni1,173,10.1016/j.jallcom.2009.10.088,WROUGHT,FCC,,,,,,7.6,,T,700.0,180.0,185.0,5.0,,,189.0,2010
,Al0.5 Co1 Cr1 Cu1 Fe1 Ni1,173,10.1016/j.jallcom.2009.10.088,WROUGHT,Other,,,,,,7.6,,T,700.0,160.0,180.0,12.0,,,,2010
,Al0.5 Co1 Cr1 Cu1 Fe1 Ni1,149,10.1016/j.vacuum.2018.12.009,CAST,FCC,,,,,,7.6,160.0,,,,,,,,189.0,2019
Al0.5 Co1 Cr1 Cu1 Fe1 Ni1 Ti0.2,,,,,,,,,,,,,,,,,,,,,
,Al0.5 Co1 Cr1 Cu1 Fe1 Ni1 Ti0.2,24,10.2320/matertrans.47.1395,CAST,FCC,,,,,,7.5,272.0,,25.0,,,,,,185.0,2006
Al0.5 Co1 Cr1 Cu1 Fe1 Ni1 Ti0.4,,,,,,,,,,,,,,,,,,,,,
,Al0.5 Co1 Cr1 Cu1 Fe1 Ni1 Ti0.4,24,10.2320/matertrans.47.1395,CAST,FCC,,,,,,7.3,321.0,,25.0,,,,,,182.0,2006
Al0.5 Co1 Cr1 Cu1 Fe1 Ni1 Ti0.6,,,,,,,,,,,,,,,,,,,,,
,Al0.5 Co1 Cr1 Cu1 Fe1 Ni1 Ti0.6,24,10.2320/matertrans.47.1395,CAST,FCC+BCC,,,,,,7.2,458.0,,25.0,,,,,,,2006
Al0.5 Co1 Cr1 Cu1 Fe1 Ni1 Ti0.8,,,,,,,,,,,,,,,,,,,,,
,Al0.5 Co1 Cr1 Cu1 Fe1 Ni1 Ti0.8,24,10.2320/matertrans.47.1395,CAST,FCC+BCC+Sec.,,,,,,7.1,590.0,,25.0,,,,,,,2006
Al0.5 Co1 Cr1 Cu1 Fe1 Ni1 Ti1,,,,,,,,,,,,,,,,,,,,,
,Al0.5 Co1 Cr1 Cu1 Fe1 Ni1 Ti1,24,10.2320/matertrans.47.1395,CAST,FCC+BCC+Sec.,,,,,,7.0,636.0,,25.0,,,,,,,2006
Al0.5 Co1 Cr1 Cu1 Fe1 Ni1 V0.2,,,,,,,,,,,,,,,,,,,,,
,Al0.5 Co1 Cr1 Cu1 Fe1 Ni1 V0.2,25,10.1007/s11661-006-0081-3,CAST,FCC,,,,,,7.6,204.0,,25.0,,,,,,186.0,2006
Al0.5 Co1 Cr1 Cu1 Fe1 Ni1 V0.4,,,,,,,,,,,,,,,,,,,,,
,Al0.5 Co1 Cr1 Cu1 Fe1 Ni1 V0.4,25,10.1007/s11661-006-0081-3,CAST,FCC+BCC,,,,,,7.5,231.0,,25.0,,,,,,,2006
Al0.5 Co1 Cr1 Cu1 Fe1 Ni1 V0.6,,,,,,,,,,,,,,,,,,,,,
,Al0.5 Co1 Cr1 Cu1 Fe1 Ni1 V0.6,25,10.1007/s11661-006-0081-3,CAST,FCC+BCC+Sec.,,,,,,7.5,328.0,,25.0,,,,,,,2006
Al0.5 Co1 Cr1 Cu1 Fe1 Ni1 V0.8,,,,,,,,,,,,,,,,,,,,,
,Al0.5 Co1 Cr1 Cu1 Fe1 Ni1 V0.8,25,10.1007/s11661-006-0081-3,CAST,FCC+BCC+Sec.,,,,,,7.4,447.0,,25.0,,,,,,,2006
Al0.5 Co1 Cr1 Cu1 Fe1 Ni1 V1,,,,,,,,,,,,,,,,,,,,,
,Al0.5 Co1 Cr1 Cu1 Fe1 Ni1 V1,25,10.1007/s11661-006-0081-3,CAST,FCC+BCC+Sec.,,,,,,7.4,639.0,,25.0,,,,,,,2006
Al0.5 Co1 Cr1 Fe1 Mn1 Ni1,,,,,,,,,,,,,,,,,,,,,
,Al0.5 Co1 Cr1 Fe1 Mn1 Ni1,136,10.1016/j.jallcom.2018.10.168,CAST,FCC+BCC,,,,,,7.4,553.0,C,25.0,1932.0,,,3.8,,,2019
,Al0.5 Co1 Cr1 Fe1 Mn1 Ni1,257,10.4028/www.scientific.net/MSF.846.13,,,,,,,,7.4,,,,,,,,,,2016
Al0.5 Co1 Cr1 Fe1 Mn1 Ni1 Ta0.2,,,,,,,,,,,,,,,,,,,,,
,Al0.5 Co1 Cr1 Fe1 Mn1 Ni1 Ta0.2,257,10.4028/www.scientific.net/MSF.846.13,,FCC+BCC+Sec.,,,,,,7.8,385.0,,,,,,,,,2016
Al0.5 Co1 Cr1 Fe1 Mn1 Ni1 Ta0.4,,,,,,,,,,,,,,,,,,,,,
,Al0.5 Co1 Cr1 Fe1 Mn1 Ni1 Ta0.4,257,10.4028/www.scientific.net/MSF.846.13,,FCC+BCC+Sec.,,,,,,8.3,486.0,,,,,,,,,2016
Al0.5 Co1 Cr1 Fe1 Mo0.5 Ni1,,,,,,,,,,,,,,,,,,,,,
,Al0.5 Co1 Cr1 Fe1 Mo0.5 Ni1,63,10.1007/s11837-013-0753-6,CAST,FCC+Sec.,,,,,,7.7,425.0,,25.0,,,,,,,2013
Al0.5 Co1 Cr1 Fe1 Ni1,,,,,,,,,,,,,,,,,,,,,
,Al0.5 Co1 Cr1 Fe1 Ni1,54,10.1016/j.jallcom.2009.08.090,ANNEAL,FCC+BCC,,,,,,7.3,159.0,,25.0,,,,,,,2009
,Al0.5 Co1 Cr1 Fe1 Ni1,54,10.1016/j.jallcom.2009.08.090,ANNEAL,FCC+BCC,,,,,,7.3,209.0,,25.0,,,,,,,2009
,Al0.5 Co1 Cr1 Fe1 Ni1,255,10.1016/j.intermet.2012.03.005,,FCC+BCC,,,,,,7.3,250.0,,,,,,,,,2012
Al0.5 Co1 Cr1 Fe1 Ni1 Ti0.5,,,,,,,,,,,,,,,,,,,,,
,Al0.5 Co1 Cr1 Fe1 Ni1 Ti0.5,226,10.1016/j.jallcom.2018.01.247,,,,,,,,6.9,,C,25.0,1100.0,,27.5,,,,2018
,Al0.5 Co1 Cr1 Fe1 Ni1 Ti0.5,256,10.1016/j.msea.2013.12.096,,FCC+FCC,,,,,,6.9,640.0,,,,,,,,,2014
Al0.5 Co1 Cr1 Fe1 Ni1 Ti1,,,,,,,,,,,,,,,,,,,,,
,Al0.5 Co1 Cr1 Fe1 Ni1 Ti1,66,10.1016/j.msea.2008.12.053,CAST,BCC+Laves,,,,,,6.6,,C,25.0,,1600.0,,10.0,107.0,,2009
Al0.5 Co1 Fe1 Ni1,,,,,,,,,,,,,,,,,,,,,
,Al0.5 Co1 Fe1 Ni1,27,10.1016/j.jmmm.2014.07.023,CAST,FCC+BCC,,,,,,7.4,212.0,C,25.0,346.0,,,,,,2014
Al0.5 Co1 Fe1 Ni1 Ti0.5,,,,,,,,,,,,,,,,,,,,,
,Al0.5 Co1 Fe1 Ni1 Ti0.5,256,10.1016/j.msea.2013.12.096,,FCC+BCC,,,,,,6.9,733.0,,,,,,,,,2014
Al0.5 Cr0.5 Cu0.5 Fe0.5 Ni1,,,,,,,,,,,,,,,,,,,,,
,Al0.5 Cr0.5 Cu0.5 Fe0.5 Ni1,33,10.1063/1.3587228,,FCC+BCC,,,,,,7.1,,,25.0,,,,,,,2011
Al0.5 Cr0.5 Fe0.5 Ni1,,,,,,,,,,,,,,,,,,,,,
,Al0.5 Cr0.5 Fe0.5 Ni1,245,10.1016/j.jallcom.2018.08.176,CAST,FCC+BCC+B2,,,,,,6.7,,T,25.0,774.0,1357.0,6.4,,,,2019
Al0.5 Cr0.5 Fe1 Ni1,,,,,,,,,,,,,,,,,,,,,
,Al0.5 Cr0.5 Fe1 Ni1,191,10.1016/j.matlet.2016.01.096,CAST,BCC+B2,,,,,,6.9,,C,25.0,,,17.0,,,,2016
Al0.5 Cr1 Cu1 Fe1 Ni1,,,,,,,,,,,,,,,,,,,,,
,Al0.5 Cr1 Cu1 Fe1 Ni1,126,10.1007/s11665-018-3822-8,CAST,FCC,,,,,,7.4,226.0,,,,,,,,185.0,2018
,Al0.5 Cr1 Cu1 Fe1 Ni1,126,10.1007/s11665-018-3822-8,WROUGHT,FCC,,,,,,7.4,287.0,,,,,,,,185.0,2018
Al0.5 Cr1 Fe1 Mn1 Ni1,,,,,,,,,,,,,,,,,,,,,
,Al0.5 Cr1 Fe1 Mn1 Ni1,99,10.1016/j.msea.2019.04.104,CAST,BCC+B2,,,,,,7.1,353.0,C,25.0,1091.0,,50.0,,,,2019
Al0.5 Hf1 Nb1 Ta1 Ti1 Zr1,,,,,,,,,,,,,,,,,,,,,
,Al0.5 Hf1 Nb1 Ta1 Ti1 Zr1,40,10.1016/j.jallcom.2014.11.064,CAST,BCC,,,,86.0,,9.3,396.0,C,25.0,1302.0,,46.0,,97.0,104.0,2015
Al0.5 Mo0.5 Nb1 Ta0.5 Ti1 Zr1,,,,,,,,,,,,,,,,,,,,,
,Al0.5 Mo0.5 Nb1 Ta0.5 Ti1 Zr1,77,10.1016/j.matdes.2017.11.033,OTHER,BCC+B2,,,,,,7.6,,C,1000.0,579.0,646.0,,,,,2018
,Al0.5 Mo0.5 Nb1 Ta0.5 Ti1 Zr1,77,10.1016/j.matdes.2017.11.033,OTHER,BCC+B2,,,,,,7.6,,C,25.0,2350.0,2460.0,,,,,2018
Al0.5 Mo1 Nb1 Ti1 V1,,,,,,,,,,,,,,,,,,,,,
,Al0.5 Mo1 Nb1 Ti1 V1,41,10.3390/e16020870,CAST,BCC,,,,,,6.8,487.0,C,25.0,1625.0,1800.0,11.0,,,156.0,2014
Al0.5 Nb1 Ta0.5 Ti1 Zr1,,,,,,,,,,,,,,,,,,,,,
,Al0.5 Nb1 Ta0.5 Ti1 Zr1,250,10.1016/j.matlet.2019.03.075,WROUGHT,BCC+HCP,,,,,,7.3,,C,25.0,1500.0,,6.0,,,,2019
,Al0.5 Nb1 Ta0.5 Ti1 Zr1,250,10.1016/j.matlet.2019.03.075,POWDER,BCC,,,,,,7.3,,,,,,,,,102.0,2019
,Al0.5 Nb1 Ta0.5 Ti1 Zr1,250,10.1016/j.matlet.2019.03.075,WROUGHT,BCC+HCP,,,,,,7.3,,C,25.0,1200.0,,8.0,,,,2019
,Al0.5 Nb1 Ta0.5 Ti1 Zr1,250,10.1016/j.matlet.2019.03.075,WROUGHT,BCC+HCP,,,,,,7.3,,C,25.0,2100.0,,12.0,,,,2019
,Al0.5 Nb1 Ta0.5 Ti1 Zr1,250,10.1016/j.matlet.2019.03.075,WROUGHT,BCC+HCP,,,,,,7.3,,C,25.0,1740.0,,20.0,,,,2019
,Al0.5 Nb1 Ta0.5 Ti1 Zr1,250,10.1016/j.matlet.2019.03.075,WROUGHT,BCC+HCP,,,,,,7.3,,C,25.0,1630.0,,12.0,,,,2019
Al0.5 Nb1 Ta1 Ti1 V1,,,,,,,,,,,,,,,,,,,,,
,Al0.5 Nb1 Ta1 Ti1 V1,42,10.1016/j.proeng.2012.03.043,CAST,BCC,,,,,,8.5,,C,25.0,1014.0,,,,,127.0,2012
Al0.511 Co0.511 Cr0.511 Fe0.511 Ni1,,,,,,,,,,,,,,,,,,,,,
,Al0.511 Co0.511 Cr0.511 Fe0.511 Ni1,192,10.1016/j.actamat.2016.11.016,,L12+B2,,,,,,7.0,,T,25.0,545.0,1030.0,16.5,,,,2017
,Al0.511 Co0.511 Cr0.511 Fe0.511 Ni1,192,10.1016/j.actamat.2016.11.016,,,,,,,,7.0,,T,-70.0,580.0,1034.0,10.5,,,,2017
,Al0.511 Co0.511 Cr0.511 Fe0.511 Ni1,192,10.1016/j.actamat.2016.11.016,,,,,,,,7.0,,T,-192.0,700.0,1000.0,4.0,,,,2017
,Al0.511 Co0.511 Cr0.511 Fe0.511 Ni1,192,10.1016/j.actamat.2016.11.016,CAST,FCC+B2,,,,,,7.0,,T,25.0,545.0,1030.0,16.5,,,,2017
Al0.515 Cr0.515 Cu0.515 Fe0.515 Ni1,,,,,,,,,,,,,,,,,,,,,
,Al0.515 Cr0.515 Cu0.515 Fe0.515 Ni1,169,10.1016/j.msea.2015.09.089,CAST,FCC+BCC+B2,,,,,,7.1,,C,25.0,,,30.0,,,,2016
Al0.515 Cr0.515 Fe1 Ni1,,,,,,,,,,,,,,,,,,,,,
,Al0.515 Cr0.515 Fe1 Ni1,191,10.1016/j.matlet.2016.01.096,CAST,FCC+BCC+B2,,,,,,6.9,,T,25.0,796.0,1437.0,15.7,,,,2016
Al0.544 C0.001 Co0.69 Fe1 Ni0.69,,,,,,,,,,,,,,,,,,,,,
,Al0.544 C0.001 Co0.69 Fe1 Ni0.69,153,10.1016/j.scriptamat.2018.09.008,CAST,B2+L12,,,11067.0,,,7.0,,C,25.0,1202.0,,32.6,,,,2019
Al0.545 Cr0.545 Fe0.515 Ni1 Ti0.273,,,,,,,,,,,,,,,,,,,,,
,Al0.545 Cr0.545 Fe0.515 Ni1 Ti0.273,182,10.1016/j.jmst.2014.09.011,CAST,BCC+B2+L12,,,,,,6.4,,C,25.0,,,16.3,,,,2015
,Al0.545 Cr0.545 Fe0.515 Ni1 Ti0.273,182,10.1016/j.jmst.2014.09.011,ANNEAL,BCC+B2+L12,,,,,,6.4,,C,25.0,,,19.8,,,,2015
Al0.55 Co1 Cr1 Fe1 Mn1 Ni1 Ta0.6,,,,,,,,,,,,,,,,,,,,,
,Al0.55 Co1 Cr1 Fe1 Mn1 Ni1 Ta0.6,257,10.4028/www.scientific.net/MSF.846.13,,FCC+BCC+Sec.,,,,,,8.6,570.0,,,,,,,,,2016
Al0.56 Co1 Cr1 Fe1 Mn1 Ni1,,,,,,,,,,,,,,,,,,,,,
,Al0.56 Co1 Cr1 Fe1 Mn1 Ni1,16,10.1016/j.actamat.2013.09.037,CAST,FCC+BCC,,,,,,7.3,278.0,T,25.0,526.0,,16.0,,,,2014
Al0.562 Co0.938 Cr0.312 Fe0.312 Ni1,,,,,,,,,,,,,,,,,,,,,
,Al0.562 Co0.938 Cr0.312 Fe0.312 Ni1,114,10.1007/s00339-019-2506-z,CAST,FCC+BCC,,,,,,7.1,305.4,C,25.0,1129.4,,16.7,,,,2019
Al0.569 Ca0.143 Li0.857 Mg1 Si0.286 Y0.003,,,,,,,,,,,,,,,,,,,,,
,Al0.569 Ca0.143 Li0.857 Mg1 Si0.286 Y0.003,103,10.3390/ma12071136,CAST,,,,,,1.7,1.6,,C,25.0,556.0,,3.0,,,,2019
Al0.581 Co0.968 Cr0.323 Fe0.323 Mo0.032 Ni1,,,,,,,,,,,,,,,,,,,,,
,Al0.581 Co0.968 Cr0.323 Fe0.323 Mo0.032 Ni1,114,10.1007/s00339-019-2506-z,CAST,FCC+BCC,,,,,,7.1,357.3,C,25.0,1159.7,,18.2,,,,2019
Al0.6 Co1 Cr0.333 Fe0.333 Mo0.067 Ni1,,,,,,,,,,,,,,,,,,,,,
,Al0.6 Co1 Cr0.333 Fe0.333 Mo0.067 Ni1,114,10.1007/s00339-019-2506-z,CAST,FCC+BCC,,,,,,7.1,362.6,C,25.0,1250.8,,14.7,,,,2019
Al0.6 Co1 Cr0.333 Fe0.333 Mo0.1 Ni0.967,,,,,,,,,,,,,,,,,,,,,
,Al0.6 Co1 Cr0.333 Fe0.333 Mo0.1 Ni0.967,114,10.1007/s00339-019-2506-z,CAST,FCC+BCC,,,,,,7.2,359.7,C,25.0,1198.3,,14.5,,,,2019
Al0.6 Co1 Cr1 Fe1 Ni1,,,,,,,,,,,,,,,,,,,,,
,Al0.6 Co1 Cr1 Fe1 Ni1,138,10.1016/j.matdes.2019.107698,CAST,FCC+BCC+B2,,,,,,7.2,228.0,,,,,,,,,2019
Al0.6 Cr0.5 Cu0.5 Fe0.5 Ni1,,,,,,,,,,,,,,,,,,,,,
,Al0.6 Cr0.5 Cu0.5 Fe0.5 Ni1,33,10.1063/1.3587228,,FCC+BCC,,,,,,6.9,,,25.0,,,,,,,2011
Al0.6 Cr1 Fe1 Mn1 Ni1,,,,,,,,,,,,,,,,,,,,,
,Al0.6 Cr1 Fe1 Mn1 Ni1,99,10.1016/j.msea.2019.04.104,CAST,BCC+B2,,,,,,6.9,361.0,C,25.0,1130.0,,53.0,,,,2019
Al0.6 Mo1 Ta1 Ti1 V1,,,,,,,,,,,,,,,,,,,,,
,Al0.6 Mo1 Ta1 Ti1 V1,86,10.4028/www.scientific.net/MSF.898.638,CAST,BCC,,,,,,8.7,,C,25.0,962.0,1033.0,,,,173.0,2017
Al0.62 Co1 Cr1 Fe1 Mn1 Ni1,,,,,,,,,,,,,,,,,,,,,
,Al0.62 Co1 Cr1 Fe1 Mn1 Ni1,16,10.1016/j.actamat.2013.09.037,CAST,FCC+BCC,,,,,,7.2,405.0,T,25.0,833.0,,5.0,,,,2014
Al0.667 C1 Co0.667 Cr0.667 Fe0.667 Ni0.667,,,,,,,,,,,,,,,,,,,,,