Alloy composition,FORMULA,IDENTIFIER: Reference ID,REFERENCE: doi,PROPERTY: Processing method,PROPERTY: Microstructure,PROPERTY: O content (wppm),PROPERTY: N content (wppm),PROPERTY: C content (wppm),PROPERTY: grain size ($\mu$m),PROPERTY: Exp. Density (g/cm$^3$),PROPERTY: Calculated Density (g/cm$^3$),PROPERTY: HV,PROPERTY: Type of test,PROPERTY: Test temperature ($^\circ$C),PROPERTY: YS (MPa),PROPERTY: UTS (MPa),PROPERTY: Elongation (%),PROPERTY: Elongation plastic (%),PROPERTY: Exp. Young modulus (GPa),PROPERTY: Calculated Young modulus (GPa),REFERENCE: year
,Al0.667 C1 Co0.667 Cr0.667 Fe0.667 Ni0.667,6,10.1016/j.jallcom.2010.10.047,CAST,BCC+Sec.,,,,,,5.9,,C,25.0,1255.0,2083.0,,6.0,73.0,,2011
Al0.667 Co0.667 Cr0.667 Fe0.667 Mo0.333 Ni1,,,,,,,,,,,,,,,,,,,,,
,Al0.667 Co0.667 Cr0.667 Fe0.667 Mo0.333 Ni1,11,10.1016/j.intermet.2012.09.008,CAST,FCC+B2+Sec.,,,,,,7.2,586.0,,25.0,,,,,,,2013
Al0.667 Co0.667 Cr0.667 Fe0.667 Ni0.667 Ti1,,,,,,,,,,,,,,,,,,,,,
,Al0.667 Co0.667 Cr0.667 Fe0.667 Ni0.667 Ti1,14,10.1063/1.2734517,CAST,BCC+Sec.,,,,,,6.1,,C,25.0,2220.0,2720.0,6.6,5.0,160.0,,2007
Al0.667 Co0.667 Cr0.667 Fe1 Mo0.333 Ni0.667,,,,,,,,,,,,,,,,,,,,,
,Al0.667 Co0.667 Cr0.667 Fe1 Mo0.333 Ni0.667,10,10.1016/j.wear.2009.10.013,CAST,BCC+Sec.,,,,,,7.2,635.0,,25.0,,,,,,,2010
Al0.667 Co0.667 Cu0.667 Fe0.667 Ni1,,,,,,,,,,,,,,,,,,,,,
,Al0.667 Co0.667 Cu0.667 Fe0.667 Ni1,263,10.1016/j.jmst.2018.12.014,CAST,FCC+BCC+B2,,,,,,7.2,323.8,C,25.0,680.0,,35.9,,,,2019
Al0.667 Co0.833 Cr0.833 Fe0.833 Ni0.833 Ti1,,,,,,,,,,,,,,,,,,,,,
,Al0.667 Co0.833 Cr0.833 Fe0.833 Ni0.833 Ti1,224,10.1016/j.jallcom.2019.07.100,CAST,BCC+B2+Laves,,,,22.03,,6.3,856.9,C,25.0,1272.0,,3.15,,,,2019
Al0.667 Co1 Cr0.667 Fe0.667 Mo0.333 Ni0.667,,,,,,,,,,,,,,,,,,,,,
,Al0.667 Co1 Cr0.667 Fe0.667 Mo0.333 Ni0.667,9,10.1002/adem.200900171,CAST,BCC+Sec.,,,,,,7.2,741.0,,25.0,,,,,,,2010
Al0.667 Co1 Cr1 Cu1 Fe1 Mn1 Ni1 Ti1 V1,,,,,,,,,,,,,,,,,,,,,
,Al0.667 Co1 Cr1 Cu1 Fe1 Mn1 Ni1 Ti1 V1,61,10.1016/j.msea.2006.11.049,CAST,BCC+Sec.,,,,,,6.8,,C,25.0,1461.0,1461.0,1.0,,163.0,,2007
Al0.667 Cr1 Nb0.667 Ti0.667 V0.667,,,,,,,,,,,,,,,,,,,,,
,Al0.667 Cr1 Nb0.667 Ti0.667 V0.667,97,10.1016/j.jallcom.2015.08.224,ANNEAL,BCC+Laves,,,,,,5.9,,C,600.0,1370.0,1480.0,,,,,2015
,Al0.667 Cr1 Nb0.667 Ti0.667 V0.667,97,10.1016/j.jallcom.2015.08.224,ANNEAL,BCC+Laves,,,,,,5.9,,C,800.0,970.0,1045.0,,,,,2015
,Al0.667 Cr1 Nb0.667 Ti0.667 V0.667,97,10.1016/j.jallcom.2015.08.224,ANNEAL,BCC+Laves,,,,,,5.9,,C,1000.0,75.0,105.0,,,,,2015
,Al0.667 Cr1 Nb0.667 Ti0.667 V0.667,97,10.1016/j.jallcom.2015.08.224,ANNEAL,BCC+Laves,,,,,,5.9,,C,25.0,1700.0,1700.0,,,,,2015
Al0.667 Li0.667 Mg0.333 Sc0.667 Ti1,,,,,,,,,,,,,,,,,,,,,
,Al0.667 Li0.667 Mg0.333 Sc0.667 Ti1,38,10.1080/21663831.2014.985855,,FCC+HCP,,,,,,2.7,591.0,,25.0,,,,,,,2014
Al0.667 Nb0.667 Ti0.667 V0.667 Zr1,,,,,,,,,,,,,,,,,,,,,
,Al0.667 Nb0.667 Ti0.667 V0.667 Zr1,68,10.1016/j.msea.2017.08.019,ANNEAL,B2+Laves+Sec.,,,,,,5.8,,C,600.0,1195.0,1195.0,,,,,2017
,Al0.667 Nb0.667 Ti0.667 V0.667 Zr1,68,10.1016/j.msea.2017.08.019,ANNEAL,B2+Laves+Sec.,,,,,,5.8,,C,800.0,180.0,395.0,,,,,2017
,Al0.667 Nb0.667 Ti0.667 V0.667 Zr1,68,10.1016/j.msea.2017.08.019,ANNEAL,B2+Laves+Sec.,,,,,,5.8,,C,25.0,1535.0,1550.0,,,,,2017
Al0.667 Nb1 Ta0.333 Ti1 Zr0.333,,,,,,,,,,,,,,,,,,,,,
,Al0.667 Nb1 Ta0.333 Ti1 Zr0.333,39,10.1007/s11837-014-1066-0,OTHER,BCC,,,,2000.0,,6.8,408.0,C,25.0,1280.0,1367.0,4.0,,,105.0,2014
,Al0.667 Nb1 Ta0.333 Ti1 Zr0.333,39,10.1007/s11837-014-1066-0,OTHER,BCC,,,,,,6.8,,C,800.0,728.0,1000.0,12.0,,,105.0,2014
,Al0.667 Nb1 Ta0.333 Ti1 Zr0.333,39,10.1007/s11837-014-1066-0,OTHER,BCC,,,,,,6.8,,C,1000.0,403.0,415.0,50.0,,,105.0,2014
Al0.68 Co1 Cr1 Fe1 Mn1 Ni1,,,,,,,,,,,,,,,,,,,,,
,Al0.68 Co1 Cr1 Fe1 Mn1 Ni1,16,10.1016/j.actamat.2013.09.037,CAST,FCC+BCC,,,,,,7.2,486.0,,25.0,,,,,,,2014
Al0.7 Co0.3 Cr1 Fe1 Ni1,,,,,,,,,,,,,,,,,,,,,
,Al0.7 Co0.3 Cr1 Fe1 Ni1,2,10.1016/j.matdes.2013.04.061,POWDER,FCC+BCC+B2,,,,,,6.8,624.0,C,25.0,2033.0,2635.0,8.0,,,,2013
Al0.7 Co1 Cr1 Fe1 Mn1 Ni1,,,,,,,,,,,,,,,,,,,,,
,Al0.7 Co1 Cr1 Fe1 Mn1 Ni1,136,10.1016/j.jallcom.2018.10.168,CAST,FCC+BCC,,,,0.2,,7.1,622.0,C,25.0,2230.0,,,1.69,,,2019
Al0.7 Cr1 Fe1 Mn1 Ni1,,,,,,,,,,,,,,,,,,,,,
,Al0.7 Cr1 Fe1 Mn1 Ni1,99,10.1016/j.msea.2019.04.104,CAST,BCC+B2,,,,,,6.8,375.0,C,25.0,1170.0,,55.0,,,,2019
Al0.714 Cr0.714 Cu0.714 Fe0.714 Ni1,,,,,,,,,,,,,,,,,,,,,
,Al0.714 Cr0.714 Cu0.714 Fe0.714 Ni1,32,10.1016/j.msea.2011.11.063,ANNEAL,FCC+BCC,,,,,,6.9,367.0,,25.0,,,,,,,2012
Al0.75 Co1 Cr1 Cu0.25 Fe1 Ni1 Ti0.5,,,,,,,,,,,,,,,,,,,,,
,Al0.75 Co1 Cr1 Cu0.25 Fe1 Ni1 Ti0.5,13,10.1016/j.jallcom.2008.11.059,CAST,FCC+BCC,,,,,,6.8,,C,25.0,1900.0,2697.0,,12.0,164.0,,2009
Al0.75 Co1 Cr1 Fe1 Mn1 Ni1,,,,,,,,,,,,,,,,,,,,,
,Al0.75 Co1 Cr1 Fe1 Mn1 Ni1,16,10.1016/j.actamat.2013.09.037,CAST,FCC+BCC,,,,,,7.1,530.0,,25.0,,,,,,,2014
Al0.75 Co1 Cr1 Fe1 Ni1,,,,,,,,,,,,,,,,,,,,,
,Al0.75 Co1 Cr1 Fe1 Ni1,54,10.1016/j.jallcom.2009.08.090,ANNEAL,FCC+BCC,,,,,,7.0,388.0,,25.0,,,,,,,2009
,Al0.75 Co1 Cr1 Fe1 Ni1,54,10.1016/j.jallcom.2009.08.090,ANNEAL,FCC+BCC,,,,,,7.0,280.0,,25.0,,,,,,,2009
Al0.75 Co1 Fe1 Ni1,,,,,,,,,,,,,,,,,,,,,
,Al0.75 Co1 Fe1 Ni1,27,10.1016/j.jmmm.2014.07.023,CAST,FCC+BCC,,,,,,7.0,385.0,C,25.0,794.0,,,,,,2014
Al0.75 Hf1 Nb1 Ta1 Ti1 Zr1,,,,,,,,,,,,,,,,,,,,,
,Al0.75 Hf1 Nb1 Ta1 Ti1 Zr1,40,10.1016/j.jallcom.2014.11.064,CAST,BCC,,,,89.0,,9.1,427.0,C,25.0,1415.0,2050.0,30.0,,102.0,103.0,2015
Al0.75 Mo1 Nb1 Ti1 V1,,,,,,,,,,,,,,,,,,,,,
,Al0.75 Mo1 Nb1 Ti1 V1,41,10.3390/e16020870,CAST,BCC,,,,,,6.6,517.0,C,25.0,1260.0,1300.0,8.0,,,151.0,2014
Al0.774 Fe1 Mn0.903 Ni0.484,,,,,,,,,,,,,,,,,,,,,
,Al0.774 Fe1 Mn0.903 Ni0.484,121,10.1155/2019/2157592,CAST,,,,,,,6.3,310.0,,,,,,,,,2019
,Al0.774 Fe1 Mn0.903 Ni0.484,121,10.1155/2019/2157592,ANNEAL,,,,,,,6.3,340.0,,,,,,,,,2019
,Al0.774 Fe1 Mn0.903 Ni0.484,121,10.1155/2019/2157592,ANNEAL,,,,,,,6.3,330.0,,,,,,,,,2019
Al0.774 Fe1 Mn0.903 Ni0.484 Ti0.026,,,,,,,,,,,,,,,,,,,,,
,Al0.774 Fe1 Mn0.903 Ni0.484 Ti0.026,121,10.1155/2019/2157592,CAST,,,,,,,6.3,330.0,,,,,,,,,2019
,Al0.774 Fe1 Mn0.903 Ni0.484 Ti0.026,121,10.1155/2019/2157592,ANNEAL,,,,,,,6.3,410.0,,,,,,,,,2019
,Al0.774 Fe1 Mn0.903 Ni0.484 Ti0.026,121,10.1155/2019/2157592,ANNEAL,,,,,,,6.3,330.0,,,,,,,,,2019
Al0.774 Fe1 Mn0.903 Ni0.484 Ti0.097,,,,,,,,,,,,,,,,,,,,,
,Al0.774 Fe1 Mn0.903 Ni0.484 Ti0.097,121,10.1155/2019/2157592,CAST,,,,,,,6.2,500.0,,,,,,,,,2019
,Al0.774 Fe1 Mn0.903 Ni0.484 Ti0.097,121,10.1155/2019/2157592,ANNEAL,,,,,,,6.2,495.0,,,,,,,,,2019
,Al0.774 Fe1 Mn0.903 Ni0.484 Ti0.097,121,10.1155/2019/2157592,ANNEAL,,,,,,,6.2,490.0,,,,,,,,,2019
Al0.8 Co1 Cr1 Cu1 Fe1,,,,,,,,,,,,,,,,,,,,,
,Al0.8 Co1 Cr1 Cu1 Fe1,20,10.3166/acsm.31.633-648,,FCC+BCC,,,,,,7.0,271.0,,25.0,,,,,,,2006
Al0.8 Co1 Cr1 Cu1 Fe1 Ni1,,,,,,,,,,,,,,,,,,,,,
,Al0.8 Co1 Cr1 Cu1 Fe1 Ni1,9,10.1002/adem.200900171,CAST,FCC+BCC,,,,,,7.3,270.0,,25.0,,,,,,,2010
Al0.8 Co1 Cr1 Fe1 Ni1 Ti0.2,,,,,,,,,,,,,,,,,,,,,
,Al0.8 Co1 Cr1 Fe1 Ni1 Ti0.2,226,10.1016/j.jallcom.2018.01.247,,,,,,,,6.8,,C,25.0,968.0,,30.1,,,,2018
Al0.8 Cr1 Fe1 Mn1 Ni1,,,,,,,,,,,,,,,,,,,,,
,Al0.8 Cr1 Fe1 Mn1 Ni1,99,10.1016/j.msea.2019.04.104,CAST,BCC+B2,,,,,,6.7,386.0,C,25.0,1200.0,,55.0,,,,2019
Al0.81 Co1 Cr1 Fe1 Mn1 Ni1,,,,,,,,,,,,,,,,,,,,,
,Al0.81 Co1 Cr1 Fe1 Mn1 Ni1,16,10.1016/j.actamat.2013.09.037,CAST,FCC+BCC,,,,,,7.0,539.0,,25.0,,,,,,,2014
Al0.833 Cr0.833 Cu0.833 Fe0.833 Ni1,,,,,,,,,,,,,,,,,,,,,
,Al0.833 Cr0.833 Cu0.833 Fe0.833 Ni1,32,10.1016/j.msea.2011.11.063,ANNEAL,FCC+BCC,,,,,,6.8,407.0,,25.0,,,,,,,2012
Al0.853 Co0.647 Cr1 Fe0.147 Ni0.294,,,,,,,,,,,,,,,,,,,,,
,Al0.853 Co0.647 Cr1 Fe0.147 Ni0.294,163,10.1016/j.actamat.2019.03.010,,,,,,,,6.0,699.0,,,,,,,,,2019
Al0.875 Co1 Cr1 Fe1 Ni1,,,,,,,,,,,,,,,,,,,,,
,Al0.875 Co1 Cr1 Fe1 Ni1,54,10.1016/j.jallcom.2009.08.090,ANNEAL,BCC,,,,,,6.9,538.0,,25.0,,,,,,188.0,2009
,Al0.875 Co1 Cr1 Fe1 Ni1,54,10.1016/j.jallcom.2009.08.090,ANNEAL,FCC+BCC,,,,,,6.9,361.0,,25.0,,,,,,,2009
,Al0.875 Co1 Cr1 Fe1 Ni1,3,10.1016/C2013-0-14235-3,,FCC+BCC,,,,,,6.9,,,25.0,,,,,,,2014
Al0.88 Co1 Cr1 Fe1 Mn1 Ni1,,,,,,,,,,,,,,,,,,,,,
,Al0.88 Co1 Cr1 Fe1 Mn1 Ni1,16,10.1016/j.actamat.2013.09.037,CAST,FCC+BCC,,,,,,7.0,533.0,,25.0,,,,,,,2014
Al0.885 Cr1 Fe1 Ni1,,,,,,,,,,,,,,,,,,,,,
,Al0.885 Cr1 Fe1 Ni1,193,10.1016/j.msea.2016.11.019,CAST,BCC+B2,,,,,,6.4,,C,25.0,770.0,,37.1,,,,2017
Al0.9 Co1 Cr1 Fe1 Ni1,,,,,,,,,,,,,,,,,,,,,
,Al0.9 Co1 Cr1 Fe1 Ni1,138,10.1016/j.matdes.2019.107698,CAST,FCC+BCC+B2,,,,,,6.8,511.0,,,,,,,,,2019
Al0.9 Co1 Cr1 Fe1 Ni1 Ti0.5,,,,,,,,,,,,,,,,,,,,,
,Al0.9 Co1 Cr1 Fe1 Ni1 Ti0.5,138,10.1016/j.matdes.2019.107698,CAST,BCC+B2+Sec.,,,,,,6.5,623.0,,,,,,,,,2019
Al0.947 Co0.158 Mo1 Ni0.289 W0.237,,,,,,,,,,,,,,,,,,,,,
,Al0.947 Co0.158 Mo1 Ni0.289 W0.237,262,10.1038/s41467-019-10533-1,CAST,,,,,,,8.0,725.0,,25.0,,,,,,,2019
Al0.95 Co1 Cr1 Fe1 Mn1 Ni1,,,,,,,,,,,,,,,,,,,,,
,Al0.95 Co1 Cr1 Fe1 Mn1 Ni1,16,10.1016/j.actamat.2013.09.037,CAST,FCC+BCC,,,,,,6.9,535.0,,25.0,,,,,,,2014
Al1 C0.1 Co1 Cr1 Fe1 Ni1,,,,,,,,,,,,,,,,,,,,,
,Al1 C0.1 Co1 Cr1 Fe1 Ni1,6,10.1016/j.jallcom.2010.10.047,CAST,BCC+Sec.,,,,,,6.7,,C,25.0,957.0,2550.0,,11.0,213.0,,2011
Al1 C0.2 Co1 Cr1 Fe1 Ni1,,,,,,,,,,,,,,,,,,,,,
,Al1 C0.2 Co1 Cr1 Fe1 Ni1,6,10.1016/j.jallcom.2010.10.047,CAST,BCC+Sec.,,,,,,6.6,,C,25.0,906.0,2386.0,,9.0,151.0,,2011
Al1 C0.3 Co1 Cr1 Fe1 Ni1,,,,,,,,,,,,,,,,,,,,,
,Al1 C0.3 Co1 Cr1 Fe1 Ni1,6,10.1016/j.jallcom.2010.10.047,CAST,BCC+Sec.,,,,,,6.5,,C,25.0,867.0,2178.0,,8.0,137.0,,2011
Al1 C0.4 Co1 Cr1 Fe1 Ni1,,,,,,,,,,,,,,,,,,,,,
,Al1 C0.4 Co1 Cr1 Fe1 Ni1,6,10.1016/j.jallcom.2010.10.047,CAST,BCC+Sec.,,,,,,6.5,,C,25.0,1056.0,2375.0,,7.0,156.0,,2011
Al1 C0.5 Co1 Cr1 Fe1 Ni1,,,,,,,,,,,,,,,,,,,,,
,Al1 C0.5 Co1 Cr1 Fe1 Ni1,6,10.1016/j.jallcom.2010.10.047,CAST,BCC+Sec.,,,,,,6.4,,C,25.0,1060.0,2250.0,,6.0,181.0,,2011
Al1 C1 Co1 Cr1 Fe1 Ni1,,,,,,,,,,,,,,,,,,,,,
,Al1 C1 Co1 Cr1 Fe1 Ni1,6,10.1016/j.jallcom.2010.10.047,CAST,BCC+Sec.,,,,,,6.2,,C,25.0,1251.0,2166.0,,7.0,75.0,,2011
,Al1 C1 Co1 Cr1 Fe1 Ni1,122,10.1080/00325899.2019.1576389,POWDER,FCC+BCC,,,,,,6.2,,,,,,,,,,2019
Al1 Co0.149 Cr0.34 Cu0.191 Fe0.34 Ni0.106,,,,,,,,,,,,,,,,,,,,,
,Al1 Co0.149 Cr0.34 Cu0.191 Fe0.34 Ni0.106,163,10.1016/j.actamat.2019.03.010,,,,,,,,5.1,749.0,,,,,,,,,2019
Al1 Co0.234 Cr0.468 Cu0.106 Fe0.213 Ni0.106,,,,,,,,,,,,,,,,,,,,,
,Al1 Co0.234 Cr0.468 Cu0.106 Fe0.213 Ni0.106,163,10.1016/j.actamat.2019.03.010,,,,,,,,5.0,797.0,,,,,,,,,2019
Al1 Co0.238 Cr0.714 Cu0.119 Fe0.167 Ni0.143,,,,,,,,,,,,,,,,,,,,,
,Al1 Co0.238 Cr0.714 Cu0.119 Fe0.167 Ni0.143,163,10.1016/j.actamat.2019.03.010,,,,,,,,5.2,783.0,,,,,,,,,2019
Al1 Co0.25 Cr1 Fe1 Ni1,,,,,,,,,,,,,,,,,,,,,
,Al1 Co0.25 Cr1 Fe1 Ni1,227,10.1016/j.jallcom.2018.07.346,,,,,,,,6.4,,C,25.0,1363.0,,19.0,,,,2018
Al1 Co0.255 Cr0.255 Cu0.106 Fe0.277 Ni0.234,,,,,,,,,,,,,,,,,,,,,
,Al1 Co0.255 Cr0.255 Cu0.106 Fe0.277 Ni0.234,163,10.1016/j.actamat.2019.03.010,,,,,,,,5.1,811.0,,,,,,,,,2019
Al1 Co0.255 Cr0.426 Cu0.106 Fe0.234 Ni0.106,,,,,,,,,,,,,,,,,,,,,
,Al1 Co0.255 Cr0.426 Cu0.106 Fe0.234 Ni0.106,163,10.1016/j.actamat.2019.03.010,,,,,,,,5.0,843.0,,,,,,,,,2019
Al1 Co0.256 Cr0.795 Cu0.128 Fe0.205 Ni0.179,,,,,,,,,,,,,,,,,,,,,
,Al1 Co0.256 Cr0.795 Cu0.128 Fe0.205 Ni0.179,163,10.1016/j.actamat.2019.03.010,,,,,,,,5.4,802.0,,,,,,,,,2019
Al1 Co0.277 Cr0.277 Cu0.106 Fe0.255 Ni0.213,,,,,,,,,,,,,,,,,,,,,
,Al1 Co0.277 Cr0.277 Cu0.106 Fe0.255 Ni0.213,163,10.1016/j.actamat.2019.03.010,,,,,,,,5.1,799.0,,,,,,,,,2019
Al1 Co0.277 Cr0.426 Cu0.106 Fe0.213 Ni0.106,,,,,,,,,,,,,,,,,,,,,
,Al1 Co0.277 Cr0.426 Cu0.106 Fe0.213 Ni0.106,163,10.1016/j.actamat.2019.03.010,,,,,,,,5.0,805.0,,,,,,,,,2019
Al1 Co0.278 Cr0.861 Cu0.167 Fe0.25 Ni0.222,,,,,,,,,,,,,,,,,,,,,
,Al1 Co0.278 Cr0.861 Cu0.167 Fe0.25 Ni0.222,163,10.1016/j.actamat.2019.03.010,,,,,,,,5.6,790.0,,,,,,,,,2019
Al1 Co0.289 Cr0.158 Cu0.237 Fe0.816 Ni0.132,,,,,,,,,,,,,,,,,,,,,
,Al1 Co0.289 Cr0.158 Cu0.237 Fe0.816 Ni0.132,163,10.1016/j.actamat.2019.03.010,,,,,,,,5.6,604.0,,,,,,,,,2019
Al1 Co0.298 Cr0.319 Cu0.106 Fe0.277 Ni0.128,,,,,,,,,,,,,,,,,,,,,
,Al1 Co0.298 Cr0.319 Cu0.106 Fe0.277 Ni0.128,163,10.1016/j.actamat.2019.03.010,,,,,,,,5.1,728.0,,,,,,,,,2019
Al1 Co0.298 Cr0.404 Cu0.106 Fe0.213 Ni0.106,,,,,,,,,,,,,,,,,,,,,
,Al1 Co0.298 Cr0.404 Cu0.106 Fe0.213 Ni0.106,163,10.1016/j.actamat.2019.03.010,,,,,,,,5.1,855.0,,,,,,,,,2019
Al1 Co0.298 Cr0.426 Cu0.106 Fe0.191 Ni0.106,,,,,,,,,,,,,,,,,,,,,
,Al1 Co0.298 Cr0.426 Cu0.106 Fe0.191 Ni0.106,163,10.1016/j.actamat.2019.03.010,,,,,,,,5.1,859.0,,,,,,,,,2019
Al1 Co0.304 Cr0.5 Cu0.109 Fe0.152 Ni0.109,,,,,,,,,,,,,,,,,,,,,
,Al1 Co0.304 Cr0.5 Cu0.109 Fe0.152 Ni0.109,163,10.1016/j.actamat.2019.03.010,,,,,,,,5.1,811.0,,,,,,,,,2019
Al1 Co0.318 Cr0.5 Cu0.114 Fe0.205 Ni0.136,,,,,,,,,,,,,,,,,,,,,
,Al1 Co0.318 Cr0.5 Cu0.114 Fe0.205 Ni0.136,163,10.1016/j.actamat.2019.03.010,,,,,,,,5.2,790.0,,,,,,,,,2019
Al1 Co0.326 Cr0.488 Cu0.116 Fe0.279 Ni0.116,,,,,,,,,,,,,,,,,,,,,
,Al1 Co0.326 Cr0.488 Cu0.116 Fe0.279 Ni0.116,163,10.1016/j.actamat.2019.03.010,,,,,,,,5.3,828.0,,,,,,,,,2019
Al1 Co0.333 Cr0.333 Cu0.333 Fe0.333,,,,,,,,,,,,,,,,,,,,,
,Al1 Co0.333 Cr0.333 Cu0.333 Fe0.333,20,10.3166/acsm.31.633-648,,BCC,,,,,,5.4,644.0,,25.0,,,,,,136.0,2006
Al1 Co0.333 Cr0.333 Fe0.333 Ni0.333,,,,,,,,,,,,,,,,,,,,,
,Al1 Co0.333 Cr0.333 Fe0.333 Ni0.333,4,10.1016/j.jallcom.2008.07.124,CAST,BCC,,,,,,5.3,506.0,,25.0,,,,,,145.0,2009
Al1 Co0.349 Cr0.395 Cu0.116 Fe0.326 Ni0.14,,,,,,,,,,,,,,,,,,,,,
,Al1 Co0.349 Cr0.395 Cu0.116 Fe0.326 Ni0.14,163,10.1016/j.actamat.2019.03.010,,,,,,,,5.3,794.0,,,,,,,,,2019
Al1 Co0.357 Cr0.357 Cu0.357 Fe0.357,,,,,,,,,,,,,,,,,,,,,
,Al1 Co0.357 Cr0.357 Cu0.357 Fe0.357,20,10.3166/acsm.31.633-648,,BCC,,,,,,5.5,657.0,,25.0,,,,,,139.0,2006
Al1 Co0.362 Cr0.34 Cu0.106 Fe0.213 Ni0.106,,,,,,,,,,,,,,,,,,,,,
,Al1 Co0.362 Cr0.34 Cu0.106 Fe0.213 Ni0.106,163,10.1016/j.actamat.2019.03.010,,,,,,,,5.1,841.0,,,,,,,,,2019
Al1 Co0.383 Cr0.319 Cu0.106 Fe0.213 Ni0.106,,,,,,,,,,,,,,,,,,,,,
,Al1 Co0.383 Cr0.319 Cu0.106 Fe0.213 Ni0.106,163,10.1016/j.actamat.2019.03.010,,,,,,,,5.1,849.0,,,,,,,,,2019
Al1 Co0.395 Cr0.349 Fe0.326 Ni0.256,,,,,,,,,,,,,,,,,,,,,
,Al1 Co0.395 Cr0.349 Fe0.326 Ni0.256,163,10.1016/j.actamat.2019.03.010,,,,,,,,5.3,806.0,,,,,,,,,2019
Al1 Co0.4 Cr0.4 Cu0.4 Fe0.4,,,,,,,,,,,,,,,,,,,,,
,Al1 Co0.4 Cr0.4 Cu0.4 Fe0.4,20,10.3166/acsm.31.633-648,,FCC+BCC,,,,,,5.6,624.0,,25.0,,,,,,,2006
Al1 Co0.4 Cr0.4 Fe0.4 Ni0.4,,,,,,,,,,,,,,,,,,,,,
,Al1 Co0.4 Cr0.4 Fe0.4 Ni0.4,4,10.1016/j.jallcom.2008.07.124,CAST,BCC,,,,,,5.6,487.0,,25.0,,,,,,152.0,2009
Al1 Co0.404 Cr0.404 Cu0.106 Fe0.106 Ni0.106,,,,,,,,,,,,,,,,,,,,,
,Al1 Co0.404 Cr0.404 Cu0.106 Fe0.106 Ni0.106,163,10.1016/j.actamat.2019.03.010,,,,,,,,5.1,878.0,,,,,,,,,2019
Al1 Co0.419 Cr0.465 Fe0.279 Ni0.163,,,,,,,,,,,,,,,,,,,,,
,Al1 Co0.419 Cr0.465 Fe0.279 Ni0.163,163,10.1016/j.actamat.2019.03.010,,,,,,,,5.3,864.0,,,,,,,,,2019
Al1 Co0.419 Cr0.558 Fe0.233 Ni0.116,,,,,,,,,,,,,,,,,,,,,
,Al1 Co0.419 Cr0.558 Fe0.233 Ni0.116,163,10.1016/j.actamat.2019.03.010,,,,,,,,5.2,856.0,,,,,,,,,2019
Al1 Co0.426 Cr0.383 Cu0.106 Fe0.106 Ni0.106,,,,,,,,,,,,,,,,,,,,,
,Al1 Co0.426 Cr0.383 Cu0.106 Fe0.106 Ni0.106,163,10.1016/j.actamat.2019.03.010,,BCC+B2,,,,,,5.1,883.0,,,,,,,,,2019
Al1 Co0.435 Cr0.435 Cu0.435 Fe0.435,,,,,,,,,,,,,,,,,,,,,
,Al1 Co0.435 Cr0.435 Cu0.435 Fe0.435,20,10.3166/acsm.31.633-648,,FCC+BCC,,,,,,5.7,603.0,,25.0,,,,,,,2006
Al1 Co0.442 Cr0.442 Fe0.256 Ni0.186,,,,,,,,,,,,,,,,,,,,,
,Al1 Co0.442 Cr0.442 Fe0.256 Ni0.186,163,10.1016/j.actamat.2019.03.010,,,,,,,,5.3,855.0,,,,,,,,,2019
Al1 Co0.442 Cr0.558 Fe0.186 Ni0.14,,,,,,,,,,,,,,,,,,,,,
,Al1 Co0.442 Cr0.558 Fe0.186 Ni0.14,163,10.1016/j.actamat.2019.03.010,,,,,,,,5.2,855.0,,,,,,,,,2019
Al1 Co0.457 Cr0.391 Cu0.109 Fe0.109 Ni0.109,,,,,,,,,,,,,,,,,,,,,
,Al1 Co0.457 Cr0.391 Cu0.109 Fe0.109 Ni0.109,163,10.1016/j.actamat.2019.03.010,,,,,,,,5.2,840.0,,,,,,,,,2019
Al1 Co0.465 Cr0.442 Fe0.209 Ni0.209,,,,,,,,,,,,,,,,,,,,,
,Al1 Co0.465 Cr0.442 Fe0.209 Ni0.209,163,10.1016/j.actamat.2019.03.010,,,,,,,,5.3,816.0,,,,,,,,,2019
Al1 Co0.465 Cr0.488 Fe0.209 Ni0.163,,,,,,,,,,,,,,,,,,,,,
,Al1 Co0.465 Cr0.488 Fe0.209 Ni0.163,163,10.1016/j.actamat.2019.03.010,,,,,,,,5.3,828.0,,,,,,,,,2019
Al1 Co0.465 Cr0.512 Fe0.186 Ni0.163,,,,,,,,,,,,,,,,,,,,,
,Al1 Co0.465 Cr0.512 Fe0.186 Ni0.163,163,10.1016/j.actamat.2019.03.010,,,,,,,,5.3,857.0,,,,,,,,,2019
Al1 Co0.5 Cr0.5 Cu0.5 Fe0.5,,,,,,,,,,,,,,,,,,,,,
,Al1 Co0.5 Cr0.5 Cu0.5 Fe0.5,20,10.3166/acsm.31.633-648,,FCC+BCC,,,,,,5.9,567.0,,25.0,,,,,,,2006
Al1 Co0.5 Cr0.5 Cu0.5 Fe0.5 Ni0.5,,,,,,,,,,,,,,,,,,,,,
,Al1 Co0.5 Cr0.5 Cu0.5 Fe0.5 Ni0.5,64,10.1007/s11661-005-0218-9,CAST,BCC,,,,,,6.3,,C,1000.0,116.0,,,,,156.0,2005
,Al1 Co0.5 Cr0.5 Cu0.5 Fe0.5 Ni0.5,64,10.1007/s11661-005-0218-9,CAST,BCC,,,,,,6.3,,C,1100.0,79.0,,,,,156.0,2005
,Al1 Co0.5 Cr0.5 Cu0.5 Fe0.5 Ni0.5,64,10.1007/s11661-005-0218-9,CAST,BCC,,,,,,6.3,,C,25.0,1620.0,,,,,156.0,2005
,Al1 Co0.5 Cr0.5 Cu0.5 Fe0.5 Ni0.5,64,10.1007/s11661-005-0218-9,CAST,BCC,,,,,,6.3,,C,600.0,805.0,,,,,156.0,2005
,Al1 Co0.5 Cr0.5 Cu0.5 Fe0.5 Ni0.5,64,10.1007/s11661-005-0218-9,CAST,BCC,,,,,,6.3,,C,500.0,1120.0,,,,,156.0,2005
,Al1 Co0.5 Cr0.5 Cu0.5 Fe0.5 Ni0.5,64,10.1007/s11661-005-0218-9,CAST,BCC,,,,,,6.3,,C,700.0,567.0,,,,,156.0,2005
,Al1 Co0.5 Cr0.5 Cu0.5 Fe0.5 Ni0.5,64,10.1007/s11661-005-0218-9,CAST,BCC,,,,,,6.3,,C,900.0,214.0,,,,,156.0,2005
,Al1 Co0.5 Cr0.5 Cu0.5 Fe0.5 Ni0.5,64,10.1007/s11661-005-0218-9,CAST,BCC,,,,,,6.3,,C,800.0,302.0,,,,,156.0,2005
,Al1 Co0.5 Cr0.5 Cu0.5 Fe0.5 Ni0.5,149,10.1016/j.vacuum.2018.12.009,CAST,FCC+BCC,,,,,,6.3,560.0,,,,,,,,,2019
Al1 Co0.5 Cr0.5 Fe0.5 Mo0.25 Ni0.5,,,,,,,,,,,,,,,,,,,,,
,Al1 Co0.5 Cr0.5 Fe0.5 Mo0.25 Ni0.5,63,10.1007/s11837-013-0753-6,CAST,BCC+B2,,,,,,6.3,605.0,,25.0,,,,,,,2013
Al1 Co0.5 Cr0.5 Fe0.5 Ni0.5,,,,,,,,,,,,,,,,,,,,,
,Al1 Co0.5 Cr0.5 Fe0.5 Ni0.5,54,10.1016/j.jallcom.2009.08.090,ANNEAL,BCC,,,,,,5.9,509.0,,25.0,,,,,,160.0,2009
,Al1 Co0.5 Cr0.5 Fe0.5 Ni0.5,54,10.1016/j.jallcom.2009.08.090,ANNEAL,BCC,,,,,,5.9,512.0,,25.0,,,,,,160.0,2009
,Al1 Co0.5 Cr0.5 Fe0.5 Ni0.5,4,10.1016/j.jallcom.2008.07.124,CAST,BCC,,,,,,5.9,432.0,,25.0,,,,,,160.0,2009
,Al1 Co0.5 Cr0.5 Fe0.5 Ni0.5,224,10.1016/j.jallcom.2019.07.100,CAST,BCC+B2,,,,80.67,,5.9,581.7,C,25.0,1241.0,,9.98,,,,2019
,Al1 Co0.5 Cr0.5 Fe0.5 Ni0.5,255,10.1016/j.intermet.2012.03.005,,BCC,,,,,,5.9,733.0,,,,,,,,160.0,2012
Al1 Co0.5 Cr0.5 Fe0.5 Ni0.5 Ti0.5,,,,,,,,,,,,,,,,,,,,,
,Al1 Co0.5 Cr0.5 Fe0.5 Ni0.5 Ti0.5,66,10.1016/j.msea.2008.12.053,CAST,BCC+BCC,,,,,,5.6,643.0,C,25.0,,1030.0,,5.0,94.0,,2009
Al1 Co0.5 Cr1 Fe0.147 Ni0.294,,,,,,,,,,,,,,,,,,,,,
,Al1 Co0.5 Cr1 Fe0.147 Ni0.294,163,10.1016/j.actamat.2019.03.010,,,,,,,,5.7,699.0,,,,,,,,,2019
Al1 Co0.5 Cr1 Fe1 Mo0.5 Ni1,,,,,,,,,,,,,,,,,,,,,
,Al1 Co0.5 Cr1 Fe1 Mo0.5 Ni1,9,10.1002/adem.200900171,CAST,BCC+Sec.,,,,,,7.0,801.0,,25.0,,,,,,,2010
Al1 Co0.5 Cr1 Fe1 Ni1,,,,,,,,,,,,,,,,,,,,,
,Al1 Co0.5 Cr1 Fe1 Ni1,227,10.1016/j.jallcom.2018.07.346,,,,,,,,6.5,,C,25.0,1349.0,,20.0,,,,2018
Al1 Co0.512 Cr0.512 Fe0.186 Ni0.116,,,,,,,,,,,,,,,,,,,,,
,Al1 Co0.512 Cr0.512 Fe0.186 Ni0.116,163,10.1016/j.actamat.2019.03.010,,,,,,,,5.3,882.0,,,,,,,,,2019
Al1 Co0.512 Cr0.535 Fe0.163 Ni0.116,,,,,,,,,,,,,,,,,,,,,
,Al1 Co0.512 Cr0.535 Fe0.163 Ni0.116,163,10.1016/j.actamat.2019.03.010,,BCC+B2,,,,,,5.3,883.0,,,,,,,,,2019
Al1 Co0.512 Cr0.581 Fe0.116 Ni0.116,,,,,,,,,,,,,,,,,,,,,
,Al1 Co0.512 Cr0.581 Fe0.116 Ni0.116,163,10.1016/j.actamat.2019.03.010,,,,,,,,5.2,848.0,,,,,,,,,2019
Al1 Co0.535 Cr0.488 Fe0.186 Ni0.116,,,,,,,,,,,,,,,,,,,,,
,Al1 Co0.535 Cr0.488 Fe0.186 Ni0.116,163,10.1016/j.actamat.2019.03.010,,,,,,,,5.3,863.0,,,,,,,,,2019
Al1 Co0.556 Cr0.556 Cu0.556 Fe0.556,,,,,,,,,,,,,,,,,,,,,
,Al1 Co0.556 Cr0.556 Cu0.556 Fe0.556,20,10.3166/acsm.31.633-648,,FCC+BCC,,,,,,6.1,557.0,,25.0,,,,,,,2006
Al1 Co0.556 Cr0.556 Fe0.556 Ni0.556 Ti0.111,,,,,,,,,,,,,,,,,,,,,
,Al1 Co0.556 Cr0.556 Fe0.556 Ni0.556 Ti0.111,224,10.1016/j.jallcom.2019.07.100,CAST,BCC+B2,,,,66.93,,5.9,605.5,C,25.0,1324.0,,10.02,,,,2019
Al1 Co0.558 Cr0.512 Fe0.116 Ni0.14,,,,,,,,,,,,,,,,,,,,,
,Al1 Co0.558 Cr0.512 Fe0.116 Ni0.14,163,10.1016/j.actamat.2019.03.010,,,,,,,,5.3,875.0,,,,,,,,,2019
Al1 Co0.558 Cr0.535 Fe0.116 Ni0.116,,,,,,,,,,,,,,,,,,,,,