Alloy composition,FORMULA,IDENTIFIER: Reference ID,REFERENCE: doi,PROPERTY: Processing method,PROPERTY: Microstructure,PROPERTY: O content (wppm),PROPERTY: N content (wppm),PROPERTY: C content (wppm),PROPERTY: grain size ($\mu$m),PROPERTY: Exp. Density (g/cm$^3$),PROPERTY: Calculated Density (g/cm$^3$),PROPERTY: HV,PROPERTY: Type of test,PROPERTY: Test temperature ($^\circ$C),PROPERTY: YS (MPa),PROPERTY: UTS (MPa),PROPERTY: Elongation (%),PROPERTY: Elongation plastic (%),PROPERTY: Exp. Young modulus (GPa),PROPERTY: Calculated Young modulus (GPa),REFERENCE: year
Nb1 Ta1 Ti1,,,,,,,,,,,,,,,,,,,,,
,Nb1 Ta1 Ti1,238,10.1016/j.actamat.2019.06.006,WROUGHT,BCC,100.0,5.0,,,,10.0,,C,20.0,573.0,,,,,136.0,2019
,Nb1 Ta1 Ti1,238,10.1016/j.actamat.2019.06.006,WROUGHT,BCC,100.0,5.0,,,,10.0,,C,100.0,486.0,,,,,136.0,2019
,Nb1 Ta1 Ti1,238,10.1016/j.actamat.2019.06.006,WROUGHT,BCC,100.0,5.0,,,,10.0,,C,200.0,378.0,,,,,136.0,2019
,Nb1 Ta1 Ti1,238,10.1016/j.actamat.2019.06.006,WROUGHT,BCC,100.0,5.0,,,,10.0,,C,300.0,314.0,,,,,136.0,2019
,Nb1 Ta1 Ti1,238,10.1016/j.actamat.2019.06.006,WROUGHT,BCC,100.0,5.0,,,,10.0,,C,400.0,232.0,,,,,136.0,2019
,Nb1 Ta1 Ti1,238,10.1016/j.actamat.2019.06.006,WROUGHT,BCC,100.0,5.0,,,,10.0,,C,600.0,222.0,,,,,136.0,2019
,Nb1 Ta1 Ti1,238,10.1016/j.actamat.2019.06.006,WROUGHT,BCC,100.0,5.0,,,,10.0,,C,800.0,210.0,,,,,136.0,2019
,Nb1 Ta1 Ti1,238,10.1016/j.actamat.2019.06.006,WROUGHT,BCC,100.0,5.0,,,,10.0,,C,1000.0,160.0,,,,,136.0,2019
,Nb1 Ta1 Ti1,119,10.3390/e21020114,CAST,BCC,,,,500.0,,10.0,246.0,T,25.0,620.0,683.0,18.5,,143.0,136.0,2019
Nb1 Ta1 Ti1 V1,,,,,,,,,,,,,,,,,,,,,
,Nb1 Ta1 Ti1 V1,42,10.1016/j.proeng.2012.03.043,CAST,BCC,,,,,,9.2,,C,25.0,1092.0,,,,,134.0,2012
,Nb1 Ta1 Ti1 V1,95,10.1016/j.msea.2016.07.102,CAST,BCC,,,,,,9.2,,C,25.0,965.0,,,,,134.0,2016
,Nb1 Ta1 Ti1 V1,125,10.1016/j.jallcom.2018.10.230,POWDER,BCC,,,,24.0,,9.2,427.9,C,25.0,1108.0,,28.3,,,134.0,2019
,Nb1 Ta1 Ti1 V1,125,10.1016/j.jallcom.2018.10.230,POWDER,BCC,,,,30.0,,9.2,444.3,C,25.0,1308.0,,27.9,,,134.0,2019
,Nb1 Ta1 Ti1 V1,125,10.1016/j.jallcom.2018.10.230,POWDER,BCC,4800.0,,1900.0,38.0,,9.2,510.9,C,25.0,1373.0,,29.5,,,134.0,2019
Nb1 Ta1 Ti1 V1 W1,,,,,,,,,,,,,,,,,,,,,
,Nb1 Ta1 Ti1 V1 W1,95,10.1016/j.msea.2016.07.102,CAST,BCC,,,,,,11.1,,C,25.0,1420.0,1800.0,20.0,,,187.0,2016
Nb1 Ta1 Ti1 V1 Zr1,,,,,,,,,,,,,,,,,,,,,
,Nb1 Ta1 Ti1 V1 Zr1,165,10.1016/j.actamat.2019.06.032,OTHER,BCC+BCC,,,,,8.43,8.5,,C,23.0,1395.0,,,,,,2019
,Nb1 Ta1 Ti1 V1 Zr1,165,10.1016/j.actamat.2019.06.032,OTHER,BCC+BCC,,,,,8.43,8.5,,C,1000.0,190.0,,,,,,2019
,Nb1 Ta1 Ti1 V1 Zr1,165,10.1016/j.actamat.2019.06.032,OTHER,BCC+BCC,,,,,8.43,8.5,,C,1200.0,78.0,,,,,,2019
Nb1 Ta1 Ti1 W1,,,,,,,,,,,,,,,,,,,,,
,Nb1 Ta1 Ti1 W1,238,10.1016/j.actamat.2019.06.006,ANNEAL,BCC,90.0,5.0,,,,12.1,,C,20.0,1054.0,,,,,198.0,2019
,Nb1 Ta1 Ti1 W1,238,10.1016/j.actamat.2019.06.006,ANNEAL,BCC,90.0,5.0,,,,12.1,,C,100.0,968.0,,,,,198.0,2019
,Nb1 Ta1 Ti1 W1,238,10.1016/j.actamat.2019.06.006,ANNEAL,BCC,90.0,5.0,,,,12.1,,C,200.0,869.0,,,,,198.0,2019
,Nb1 Ta1 Ti1 W1,238,10.1016/j.actamat.2019.06.006,ANNEAL,BCC,90.0,5.0,,,,12.1,,C,300.0,754.0,,,,,198.0,2019
,Nb1 Ta1 Ti1 W1,238,10.1016/j.actamat.2019.06.006,ANNEAL,BCC,90.0,5.0,,,,12.1,,C,400.0,627.0,,,,,198.0,2019
,Nb1 Ta1 Ti1 W1,238,10.1016/j.actamat.2019.06.006,ANNEAL,BCC,90.0,5.0,,,,12.1,,C,600.0,596.0,,,,,198.0,2019
,Nb1 Ta1 Ti1 W1,238,10.1016/j.actamat.2019.06.006,ANNEAL,BCC,90.0,5.0,,,,12.1,,C,800.0,564.0,,,,,198.0,2019
,Nb1 Ta1 Ti1 W1,238,10.1016/j.actamat.2019.06.006,ANNEAL,BCC,90.0,5.0,,,,12.1,,C,1000.0,459.0,,,,,198.0,2019
Nb1 Ta1 Ti1 Zr1,,,,,,,,,,,,,,,,,,,,,
,Nb1 Ta1 Ti1 Zr1,119,10.3390/e21020114,CAST,BCC,,,,500.0,,8.9,358.0,T,25.0,1144.0,1205.0,6.4,,98.0,115.0,2019
Nb1 Ta1 V1 W1,,,,,,,,,,,,,,,,,,,,,
,Nb1 Ta1 V1 W1,95,10.1016/j.msea.2016.07.102,CAST,BCC,,,,,,12.9,,C,25.0,1530.0,1700.0,12.0,,,206.0,2016
Nb1 Ti1 V0.3 Zr1,,,,,,,,,,,,,,,,,,,,,
,Nb1 Ti1 V0.3 Zr1,58,10.1016/j.matdes.2015.06.072,ANNEAL,BCC,,,,,,6.5,,C,25.0,866.0,,,45.0,,96.0,2015
Nb1 Ti1 V1 Zr1,,,,,,,,,,,,,,,,,,,,,
,Nb1 Ti1 V1 Zr1,45,10.1016/j.msea.2012.12.018,OTHER,BCC,,,,550.0,,6.5,335.0,C,25.0,1105.0,,50.0,,,100.0,2013
,Nb1 Ti1 V1 Zr1,45,10.1016/j.msea.2012.12.018,OTHER,BCC,,,,,,6.5,,C,600.0,834.0,,50.0,,,100.0,2013
,Nb1 Ti1 V1 Zr1,45,10.1016/j.msea.2012.12.018,OTHER,BCC,,,,,,6.5,,C,800.0,187.0,,50.0,,,100.0,2013
,Nb1 Ti1 V1 Zr1,45,10.1016/j.msea.2012.12.018,OTHER,BCC,,,,,,6.5,,C,1000.0,58.0,,50.0,,,100.0,2013
,Nb1 Ti1 V1 Zr1,58,10.1016/j.matdes.2015.06.072,ANNEAL,BCC,,,,,,6.5,,C,25.0,1104.0,,,50.0,,100.0,2015
,Nb1 Ti1 V1 Zr1,134,10.1016/j.actamat.2012.11.032,,,,,,,6.52,6.5,335.0,C,25.0,1105.0,,50.0,,,,2013
Nb1 Ti1 Zr1,,,,,,,,,,,,,,,,,,,,,
,Nb1 Ti1 Zr1,165,10.1016/j.actamat.2019.06.032,OTHER,BCC,,,,,6.63,6.5,,C,23.0,975.0,,,,,94.0,2019
,Nb1 Ti1 Zr1,165,10.1016/j.actamat.2019.06.032,OTHER,BCC,,,,,6.63,6.5,,C,1000.0,141.0,,,,,94.0,2019
,Nb1 Ti1 Zr1,165,10.1016/j.actamat.2019.06.032,OTHER,BCC,,,,,6.63,6.5,,C,1200.0,61.0,,,,,94.0,2019
,Nb1 Ti1 Zr1,231,10.1007/s12598-019-01310-6,CAST,BCC,,,,,,6.5,372.0,C,25.0,1223.0,,48.0,,,94.0,2019
,Nb1 Ti1 Zr1,231,10.1007/s12598-019-01310-6,ANNEAL,BCC,,,,300.0,,6.5,,,,,,,,,94.0,2019
,Nb1 Ti1 Zr1,231,10.1007/s12598-019-01310-6,CAST,BCC,,,,,,6.5,,C,800.0,462.0,,51.0,,,94.0,2019
,Nb1 Ti1 Zr1,231,10.1007/s12598-019-01310-6,CAST,BCC,,,,,,6.5,,C,1000.0,218.0,,51.0,,,94.0,2019
,Nb1 Ti1 Zr1,119,10.3390/e21020114,CAST,BCC,,,,500.0,,6.5,295.0,T,25.0,956.0,991.0,14.2,,88.0,94.0,2019
Ta1 Ti1 Zr1,,,,,,,,,,,,,,,,,,,,,
,Ta1 Ti1 Zr1,119,10.3390/e21020114,CAST,BCC+Sec.,,,,500.0,,9.0,485.0,T,25.0,,284.0,0.0,,157.0,,2019