Alloy composition,FORMULA,IDENTIFIER: Reference ID,REFERENCE: doi,PROPERTY: Processing method,PROPERTY: Microstructure,PROPERTY: O content (wppm),PROPERTY: N content (wppm),PROPERTY: C content (wppm),PROPERTY: grain size ($\mu$m),PROPERTY: Exp. Density (g/cm$^3$),PROPERTY: Calculated Density (g/cm$^3$),PROPERTY: HV,PROPERTY: Type of test,PROPERTY: Test temperature ($^\circ$C),PROPERTY: YS (MPa),PROPERTY: UTS (MPa),PROPERTY: Elongation (%),PROPERTY: Elongation plastic (%),PROPERTY: Exp. Young modulus (GPa),PROPERTY: Calculated Young modulus (GPa),REFERENCE: year
,Cr0.5 Fe0.5 Ni1 Ti0.15,237,10.1016/j.msea.2019.138181,WROUGHT,FCC,,,,90.0,,7.8,335.0,T,25.0,672.0,982.0,37.0,,,212.0,2019
,Cr0.5 Fe0.5 Ni1 Ti0.15,237,10.1016/j.msea.2019.138181,WROUGHT,FCC,,,,324.0,,7.8,204.0,,,,,,,,212.0,2019
Cr0.5 Fe1 Mn0.625 Ni0.375,,,,,,,,,,,,,,,,,,,,,
,Cr0.5 Fe1 Mn0.625 Ni0.375,151,10.1016/j.jallcom.2018.08.093,CAST,FCC+BCC,,,,75.0,,7.8,,C,25.0,219.0,,,,,,2019
,Cr0.5 Fe1 Mn0.625 Ni0.375,151,10.1016/j.jallcom.2018.08.093,CAST,FCC+BCC,,,,,,7.8,,C,400.0,132.0,,,,,,2019
,Cr0.5 Fe1 Mn0.625 Ni0.375,151,10.1016/j.jallcom.2018.08.093,CAST,FCC+BCC,,,,,,7.8,,C,600.0,115.0,,,,,,2019
Cr1 Cu1 Fe1 Mn1 Ni1,,,,,,,,,,,,,,,,,,,,,
,Cr1 Cu1 Fe1 Mn1 Ni1,4,10.1016/j.jallcom.2008.07.124,CAST,FCC+BCC,,,,,,8.1,296.0,,25.0,,,,,,,2009
,Cr1 Cu1 Fe1 Mn1 Ni1,146,10.1016/j.matchemphys.2018.09.033,CAST,Other,,,,,,8.1,,T,25.0,628.0,950.0,14.5,,,,2019
,Cr1 Cu1 Fe1 Mn1 Ni1,146,10.1016/j.matchemphys.2018.09.033,ANNEAL,Other,,,,,,8.1,,T,25.0,545.0,690.0,5.0,,,,2019
,Cr1 Cu1 Fe1 Mn1 Ni1,146,10.1016/j.matchemphys.2018.09.033,ANNEAL,Other,,,,,,8.1,,T,25.0,534.0,682.0,5.2,,,,2019
,Cr1 Cu1 Fe1 Mn1 Ni1,146,10.1016/j.matchemphys.2018.09.033,ANNEAL,Other,,,,,,8.1,,T,25.0,525.0,680.0,4.3,,,,2019
,Cr1 Cu1 Fe1 Mn1 Ni1,146,10.1016/j.matchemphys.2018.09.033,ANNEAL,Other,,,,,,8.1,,T,25.0,517.0,677.0,4.6,,,,2019
,Cr1 Cu1 Fe1 Mn1 Ni1,146,10.1016/j.matchemphys.2018.09.033,ANNEAL,Other,,,,,,8.1,,T,25.0,502.0,671.0,4.9,,,,2019
,Cr1 Cu1 Fe1 Mn1 Ni1,218,10.1007/s11665-019-04003-4,CAST,FCC+BCC,,,,,,8.1,,T,25.0,615.0,950.0,14.0,,,,2019
,Cr1 Cu1 Fe1 Mn1 Ni1,218,10.1007/s11665-019-04003-4,ANNEAL,FCC+BCC,,,,,,8.1,,,,,,,,,,2019
,Cr1 Cu1 Fe1 Mn1 Ni1,218,10.1007/s11665-019-04003-4,ANNEAL,FCC+BCC+Sec.,,,,,,8.1,,,,,,,,,,2019
,Cr1 Cu1 Fe1 Mn1 Ni1,240,10.1016/j.matchar.2019.05.043,WROUGHT,Other,,,,,,8.1,398.0,T,25.0,1190.0,1300.0,4.3,,,,2019
,Cr1 Cu1 Fe1 Mn1 Ni1,240,10.1016/j.matchar.2019.05.043,WROUGHT,Other,,,,1.4,,8.1,367.0,T,25.0,1170.0,1270.0,10.7,,,,2019
,Cr1 Cu1 Fe1 Mn1 Ni1,240,10.1016/j.matchar.2019.05.043,WROUGHT,Other,,,,1.5,,8.1,312.0,T,25.0,1030.0,1190.0,11.4,,,,2019
,Cr1 Cu1 Fe1 Mn1 Ni1,240,10.1016/j.matchar.2019.05.043,WROUGHT,Other,,,,1.9,,8.1,271.0,T,25.0,970.0,1110.0,12.1,,,,2019
,Cr1 Cu1 Fe1 Mn1 Ni1,240,10.1016/j.matchar.2019.05.043,WROUGHT,Other,,,,2.2,,8.1,183.0,T,25.0,850.0,960.0,14.3,,,,2019
,Cr1 Cu1 Fe1 Mn1 Ni1,240,10.1016/j.matchar.2019.05.043,WROUGHT,Other,,,,6.5,,8.1,162.0,T,25.0,470.0,640.0,34.8,,,,2019
Cr1 Cu1 Fe1 Mo1 Ni1,,,,,,,,,,,,,,,,,,,,,
,Cr1 Cu1 Fe1 Mo1 Ni1,4,10.1016/j.jallcom.2008.07.124,CAST,FCC,,,,,,8.7,263.0,,25.0,,,,,,236.0,2009
Cr1 Cu1 Fe1 Ni1 Ti1,,,,,,,,,,,,,,,,,,,,,
,Cr1 Cu1 Fe1 Ni1 Ti1,123,10.1007/s11106-019-00012-z,CAST,FCC+BCC,,,,,,7.2,,,,,,,,,,2019
,Cr1 Cu1 Fe1 Ni1 Ti1,123,10.1007/s11106-019-00012-z,WROUGHT,FCC+BCC,,,,,,7.2,,,,,,,,,,2019
Cr1 Fe1 Mn1 Ni1,,,,,,,,,,,,,,,,,,,,,
,Cr1 Fe1 Mn1 Ni1,247,10.1016/j.jallcom.2019.04.296,,FCC,,,,,,7.8,,,,,,,,,222.0,2019
Cr1 Fe1 Mo1 Nb1 Ti1,,,,,,,,,,,,,,,,,,,,,
,Cr1 Fe1 Mo1 Nb1 Ti1,233,10.1007/s40195-019-00935-x,CAST,BCC+Laves,,,,,,7.6,792.0,C,25.0,1647.0,,0.9,,,,2019
Cr1 Fe1 Mo1 Nb1 V1,,,,,,,,,,,,,,,,,,,,,
,Cr1 Fe1 Mo1 Nb1 V1,233,10.1007/s40195-019-00935-x,CAST,BCC+Laves,,,,,,8.1,826.0,C,25.0,2663.0,,2.7,,,,2019
Cr1 Fe1 Ni1 Ti0.2,,,,,,,,,,,,,,,,,,,,,
,Cr1 Fe1 Ni1 Ti0.2,107,10.1557/jmr.2019.40,CAST,BCC+FCC,,,,,,7.6,362.2,C,25.0,2297.94,,5.8,,,,2019
Cr1 Fe1 Ni1 Ti0.3,,,,,,,,,,,,,,,,,,,,,
,Cr1 Fe1 Ni1 Ti0.3,107,10.1557/jmr.2019.40,CAST,BCC+FCC,,,,,,7.5,510.3,C,25.0,2364.63,,,,,,2019
Cr1 Fe1 Ni1 Ti0.4,,,,,,,,,,,,,,,,,,,,,
,Cr1 Fe1 Ni1 Ti0.4,107,10.1557/jmr.2019.40,CAST,BCC,,,,,,7.4,600.3,C,25.0,2475.41,,6.5,,,212.0,2019
Cr1 Fe1 Ni1 Ti0.5,,,,,,,,,,,,,,,,,,,,,
,Cr1 Fe1 Ni1 Ti0.5,107,10.1557/jmr.2019.40,CAST,BCC,,,,,,7.3,709.6,C,25.0,2380.79,,,,,208.0,2019
Cr1 Fe1 Ni1 Ti0.6,,,,,,,,,,,,,,,,,,,,,
,Cr1 Fe1 Ni1 Ti0.6,107,10.1557/jmr.2019.40,CAST,BCC,,,,,,7.2,718.2,C,25.0,1923.15,,,,,204.0,2019
Cr1 Fe1 Ni1 V0.5 W1,,,,,,,,,,,,,,,,,,,,,
,Cr1 Fe1 Ni1 V0.5 W1,181,10.1007/s11665-015-1767-8,CAST,FCC+BCC+Sec.,,,,,,10.9,,C,25.0,,,7.3,,,,2015
Cr1 Hf1 Nb1 Ti1 Zr1,,,,,,,,,,,,,,,,,,,,,
,Cr1 Hf1 Nb1 Ti1 Zr1,70,10.1016/j.ijrmhm.2014.07.009,ANNEAL,BCC+Laves,,,,,,8.2,,C,25.0,1457.0,1908.0,,,,,2014
,Cr1 Hf1 Nb1 Ti1 Zr1,70,10.1016/j.ijrmhm.2014.07.009,ANNEAL,BCC+Laves,,,,,,8.2,,C,25.0,1420.0,1885.0,4.2,,,,2014
,Cr1 Hf1 Nb1 Ti1 Zr1,70,10.1016/j.ijrmhm.2014.07.009,ANNEAL,BCC+Laves,,,,,,8.2,,C,25.0,1328.0,1884.0,,,,,2014
,Cr1 Hf1 Nb1 Ti1 Zr1,70,10.1016/j.ijrmhm.2014.07.009,ANNEAL,BCC+Laves,,,,,,8.2,,C,25.0,1322.0,1726.0,,,,,2014
,Cr1 Hf1 Nb1 Ti1 Zr1,70,10.1016/j.ijrmhm.2014.07.009,CAST,BCC+Laves,,,,,,8.2,,C,25.0,1375.0,2130.0,3.0,,,,2014
Cr1 Mo0.5 Nb1 Ta0.5 Ti1 Zr1,,,,,,,,,,,,,,,,,,,,,
,Cr1 Mo0.5 Nb1 Ta0.5 Ti1 Zr1,44,10.1016/j.msea.2011.09.033,OTHER,BCC+BCC+Sec.,,,,,,8.0,540.0,C,25.0,1595.0,2046.0,5.0,,,,2011
,Cr1 Mo0.5 Nb1 Ta0.5 Ti1 Zr1,44,10.1016/j.msea.2011.09.033,OTHER,BCC+BCC+Sec.,,,,,,8.0,,C,800.0,983.0,1100.0,5.5,,,,2011
,Cr1 Mo0.5 Nb1 Ta0.5 Ti1 Zr1,44,10.1016/j.msea.2011.09.033,OTHER,BCC+BCC+Sec.,,,,,,8.0,,C,1000.0,546.0,630.0,50.0,,,,2011
,Cr1 Mo0.5 Nb1 Ta0.5 Ti1 Zr1,44,10.1016/j.msea.2011.09.033,OTHER,BCC+BCC+Sec.,,,,,,8.0,,C,1200.0,170.0,190.0,50.0,,,,2011
,Cr1 Mo0.5 Nb1 Ta0.5 Ti1 Zr1,165,10.1016/j.actamat.2019.06.032,OTHER,BCC+BCC+Laves,,,,,7.98,8.0,,C,23.0,1595.0,,,,,,2019
,Cr1 Mo0.5 Nb1 Ta0.5 Ti1 Zr1,165,10.1016/j.actamat.2019.06.032,OTHER,BCC+BCC+Laves,,,,,7.98,8.0,,C,1000.0,546.0,,,,,,2019
,Cr1 Mo0.5 Nb1 Ta0.5 Ti1 Zr1,165,10.1016/j.actamat.2019.06.032,OTHER,BCC+BCC+Laves,,,,,7.98,8.0,,C,1200.0,170.0,,,,,,2019
Cr1 Mo1 Nb1 Ta1 V1 W1,,,,,,,,,,,,,,,,,,,,,
,Cr1 Mo1 Nb1 Ta1 V1 W1,147,10.1016/j.jallcom.2018.11.318,POWDER,BCC+Laves+Sec.,7946.0,,,0.54,,11.7,1072.0,C,25.0,,,,,,,2019
,Cr1 Mo1 Nb1 Ta1 V1 W1,147,10.1016/j.jallcom.2018.11.318,POWDER,BCC+Laves+Sec.,7946.0,,,1.24,,11.7,1010.0,C,25.0,3416.0,,,5.3,,,2019
,Cr1 Mo1 Nb1 Ta1 V1 W1,147,10.1016/j.jallcom.2018.11.318,POWDER,BCC+Laves+Sec.,7946.0,,,5.01,,11.7,991.3,C,25.0,3410.0,,,2.0,,,2019
,Cr1 Mo1 Nb1 Ta1 V1 W1,147,10.1016/j.jallcom.2018.11.318,POWDER,BCC+Laves+Sec.,7946.0,,,10.8,,11.7,988.3,C,25.0,3338.0,,,1.9,,,2019
,Cr1 Mo1 Nb1 Ta1 V1 W1,148,10.1016/j.calphad.2015.09.007,CAST,,,,,,,11.7,704.6,C,25.0,,,,,,,2015
Cr1 Mo1 Nb1 Ti1,,,,,,,,,,,,,,,,,,,,,
,Cr1 Mo1 Nb1 Ti1,238,10.1016/j.actamat.2019.06.006,ANNEAL,BCC,260.0,5.0,,,,7.6,,C,20.0,1630.0,,,,,196.0,2019
,Cr1 Mo1 Nb1 Ti1,238,10.1016/j.actamat.2019.06.006,ANNEAL,BCC,260.0,5.0,,,,7.6,,C,200.0,1268.0,,,,,196.0,2019
,Cr1 Mo1 Nb1 Ti1,238,10.1016/j.actamat.2019.06.006,ANNEAL,BCC,260.0,5.0,,,,7.6,,C,400.0,1115.0,,,,,196.0,2019
,Cr1 Mo1 Nb1 Ti1,238,10.1016/j.actamat.2019.06.006,ANNEAL,BCC,260.0,5.0,,,,7.6,,C,600.0,1062.0,,,,,196.0,2019
,Cr1 Mo1 Nb1 Ti1,238,10.1016/j.actamat.2019.06.006,ANNEAL,BCC,260.0,5.0,,,,7.6,,C,800.0,1058.0,,,,,196.0,2019
Cr1 Mo1 Nb1 Ti1 W1,,,,,,,,,,,,,,,,,,,,,
,Cr1 Mo1 Nb1 Ti1 W1,244,10.1007/s11837-019-03432-9,POWDER,BCC+Laves,,,,,,9.9,,C,25.0,2500.0,,10.0,,,,2019
,Cr1 Mo1 Nb1 Ti1 W1,244,10.1007/s11837-019-03432-9,POWDER,BCC+Laves,,,,,,9.9,,C,25.0,1260.0,,4.8,,,,2019
,Cr1 Mo1 Nb1 Ti1 W1,244,10.1007/s11837-019-03432-9,POWDER,BCC+Laves,,,,,,9.9,,C,25.0,1630.0,,4.85,,,,2019
,Cr1 Mo1 Nb1 Ti1 W1,244,10.1007/s11837-019-03432-9,POWDER,BCC+Laves,,,,,,9.9,,C,25.0,2030.0,,4.3,,,,2019
,Cr1 Mo1 Nb1 Ti1 W1,244,10.1007/s11837-019-03432-9,POWDER,BCC+Laves,,,,,,9.9,,C,25.0,1920.0,,5.0,,,,2019
Cr1 Mo1 Ta1 Ti1,,,,,,,,,,,,,,,,,,,,,
,Cr1 Mo1 Ta1 Ti1,238,10.1016/j.actamat.2019.06.006,ANNEAL,BCC+Laves,200.0,5.0,,,,9.9,,C,20.0,1795.0,,,,,,2019
,Cr1 Mo1 Ta1 Ti1,238,10.1016/j.actamat.2019.06.006,ANNEAL,BCC+Laves,200.0,5.0,,,,9.9,,C,100.0,1506.0,,,,,,2019
,Cr1 Mo1 Ta1 Ti1,238,10.1016/j.actamat.2019.06.006,ANNEAL,BCC+Laves,200.0,5.0,,,,9.9,,C,200.0,1266.0,,,,,,2019
,Cr1 Mo1 Ta1 Ti1,238,10.1016/j.actamat.2019.06.006,ANNEAL,BCC+Laves,200.0,5.0,,,,9.9,,C,300.0,1183.0,,,,,,2019
,Cr1 Mo1 Ta1 Ti1,238,10.1016/j.actamat.2019.06.006,ANNEAL,BCC+Laves,200.0,5.0,,,,9.9,,C,400.0,1175.0,,,,,,2019
,Cr1 Mo1 Ta1 Ti1,238,10.1016/j.actamat.2019.06.006,ANNEAL,BCC+Laves,200.0,5.0,,,,9.9,,C,600.0,1162.0,,,,,,2019
,Cr1 Mo1 Ta1 Ti1,238,10.1016/j.actamat.2019.06.006,ANNEAL,BCC+Laves,200.0,5.0,,,,9.9,,C,800.0,1162.0,,,,,,2019
,Cr1 Mo1 Ta1 Ti1,238,10.1016/j.actamat.2019.06.006,ANNEAL,BCC+Laves,200.0,5.0,,,,9.9,,C,1000.0,1159.0,,,,,,2019
,Cr1 Mo1 Ta1 Ti1,265,10.1016/j.matdes.2018.06.003,ANNEAL,BCC,,,,,,9.9,555.0,,,,,,,,219.0,2018
,Cr1 Mo1 Ta1 Ti1,265,10.1016/j.matdes.2018.06.003,CAST,BCC,,,,,,9.9,539.0,,,,,,,,219.0,2018
Cr1 Nb0.333 Ti0.333 Zr0.333,,,,,,,,,,,,,,,,,,,,,
,Cr1 Nb0.333 Ti0.333 Zr0.333,165,10.1016/j.actamat.2019.06.032,OTHER,BCC+Laves,,,,,6.56,6.8,,C,23.0,1576.0,,,,,,2019
,Cr1 Nb0.333 Ti0.333 Zr0.333,165,10.1016/j.actamat.2019.06.032,OTHER,BCC+Laves,,,,,6.56,6.8,,C,1000.0,139.0,,,,,,2019
,Cr1 Nb0.333 Ti0.333 Zr0.333,165,10.1016/j.actamat.2019.06.032,OTHER,BCC+Laves,,,,,6.56,6.8,,C,1200.0,32.0,,,,,,2019
Cr1 Nb1 Ta1 Ti1,,,,,,,,,,,,,,,,,,,,,
,Cr1 Nb1 Ta1 Ti1,265,10.1016/j.matdes.2018.06.003,ANNEAL,BCC+Sec.,,,,,,9.4,,,,,,,,,,2018
,Cr1 Nb1 Ta1 Ti1,265,10.1016/j.matdes.2018.06.003,CAST,BCC,,,,,,9.4,495.0,,,,,,,,162.0,2018
Cr1 Nb1 Ti1 V1 Zr1,,,,,,,,,,,,,,,,,,,,,
,Cr1 Nb1 Ti1 V1 Zr1,45,10.1016/j.msea.2012.12.018,OTHER,BCC+Sec.,,,,,,6.6,482.0,C,25.0,1298.0,,3.0,,,,2013
,Cr1 Nb1 Ti1 V1 Zr1,45,10.1016/j.msea.2012.12.018,OTHER,BCC+Sec.,,,,,,6.6,,C,600.0,1230.0,,10.0,,,,2013
,Cr1 Nb1 Ti1 V1 Zr1,45,10.1016/j.msea.2012.12.018,OTHER,BCC+Sec.,,,,,,6.6,,C,800.0,615.0,,50.0,,,,2013
,Cr1 Nb1 Ti1 V1 Zr1,45,10.1016/j.msea.2012.12.018,OTHER,BCC+Sec.,,,,,,6.6,,C,1000.0,259.0,,50.0,,,,2013
Cr1 Nb1 Ti1 W1,,,,,,,,,,,,,,,,,,,,,
,Cr1 Nb1 Ti1 W1,265,10.1016/j.matdes.2018.06.003,ANNEAL,BCC+Sec.,,,,,,9.9,630.0,,,,,,,,,2018
,Cr1 Nb1 Ti1 W1,265,10.1016/j.matdes.2018.06.003,CAST,BCC,,,,,,9.9,630.0,,,,,,,,217.0,2018
Cr1 Nb1 Ti1 Zr1,,,,,,,,,,,,,,,,,,,,,
,Cr1 Nb1 Ti1 Zr1,45,10.1016/j.msea.2012.12.018,OTHER,BCC+Sec.,,,,,,6.6,418.0,C,25.0,1260.0,,6.0,,,,2013
,Cr1 Nb1 Ti1 Zr1,45,10.1016/j.msea.2012.12.018,OTHER,BCC+Sec.,,,,,,6.6,,C,600.0,1035.0,,50.0,,,,2013
,Cr1 Nb1 Ti1 Zr1,45,10.1016/j.msea.2012.12.018,OTHER,BCC+Sec.,,,,,,6.6,,C,800.0,300.0,,50.0,,,,2013
,Cr1 Nb1 Ti1 Zr1,45,10.1016/j.msea.2012.12.018,OTHER,BCC+Sec.,,,,,,6.6,,C,1000.0,115.0,,50.0,,,,2013
,Cr1 Nb1 Ti1 Zr1,134,10.1016/j.actamat.2012.11.032,,,,,,,6.67,6.6,418.0,C,25.0,1260.0,,6.0,,,,2013
Cr1 Ta1 Ti0.17 V1 W1,,,,,,,,,,,,,,,,,,,,,
,Cr1 Ta1 Ti0.17 V1 W1,71,10.1016/j.matchemphys.2017.06.054,POWDER,BCC+Laves,,,,,,12.6,715.0,C,25.0,2034.0,,1.5,,,,2018
,Cr1 Ta1 Ti0.17 V1 W1,71,10.1016/j.matchemphys.2017.06.054,POWDER,BCC+Laves,,,,,,12.6,,C,1200.0,750.0,,1.5,,,,2018
Cr1 Ta1 Ti0.3 V1 W1,,,,,,,,,,,,,,,,,,,,,
,Cr1 Ta1 Ti0.3 V1 W1,71,10.1016/j.matchemphys.2017.06.054,POWDER,BCC+Laves,,,,,,12.3,780.0,C,25.0,2050.0,,1.5,,,,2018
,Cr1 Ta1 Ti0.3 V1 W1,71,10.1016/j.matchemphys.2017.06.054,POWDER,BCC+Laves,,,,,,12.3,,C,1200.0,586.0,,1.5,,,,2018
Cr1 Ta1 V1 W1,,,,,,,,,,,,,,,,,,,,,
,Cr1 Ta1 V1 W1,71,10.1016/j.matchemphys.2017.06.054,POWDER,BCC+Laves,,,,,,13.0,715.0,C,25.0,2327.0,,1.5,,,,2018
,Cr1 Ta1 V1 W1,71,10.1016/j.matchemphys.2017.06.054,POWDER,BCC+Laves,,,,,,13.0,,C,1200.0,979.0,,1.5,,,,2018
Cu1 Fe1 Ni1 Ti1 V1 Zr1,,,,,,,,,,,,,,,,,,,,,
,Cu1 Fe1 Ni1 Ti1 V1 Zr1,15,10.1002/adem.200300567,CAST,,,,,,,6.8,590.0,,25.0,,,,,,,2004
Cu1 Mn1 Ni1 Sn0.053,,,,,,,,,,,,,,,,,,,,,
,Cu1 Mn1 Ni1 Sn0.053,62,10.1016/j.jallcom.2015.07.285,CAST,FCC+Sec.,,,,,,8.4,205.0,C,25.0,380.0,,63.0,,,,2015
Cu1 Mn1 Ni1 Sn0.111,,,,,,,,,,,,,,,,,,,,,
,Cu1 Mn1 Ni1 Sn0.111,62,10.1016/j.jallcom.2015.07.285,CAST,FCC+Sec.,,,,,,8.3,318.0,C,25.0,630.0,,20.0,,,,2015
Cu1 Mn1 Ni1 Zn0.25,,,,,,,,,,,,,,,,,,,,,
,Cu1 Mn1 Ni1 Zn0.25,62,10.1016/j.jallcom.2015.07.285,CAST,FCC,,,,,,8.3,109.0,C,25.0,140.0,,65.0,,,169.0,2015
Cu1 Mn1 Ni1 Zn0.333,,,,,,,,,,,,,,,,,,,,,
,Cu1 Mn1 Ni1 Zn0.333,62,10.1016/j.jallcom.2015.07.285,CAST,FCC,,,,,,8.3,147.0,C,25.0,215.0,,60.0,,,167.0,2015
Fe1 Mn1 Ni1,,,,,,,,,,,,,,,,,,,,,
,Fe1 Mn1 Ni1,37,10.1016/j.actamat.2014.08.026,WROUGHT,FCC,,,,30.0,,8.1,,T,25.0,221.0,602.0,36.0,,,203.0,2014
,Fe1 Mn1 Ni1,208,10.1016/j.actamat.2019.04.017,WROUGHT,FCC,,,,0.862,,8.1,,T,25.0,529.0,613.0,25.0,,182.0,203.0,2019
,Fe1 Mn1 Ni1,208,10.1016/j.actamat.2019.04.017,WROUGHT,FCC,,,,0.894,,8.1,,T,25.0,522.0,601.0,25.0,,182.0,203.0,2019
,Fe1 Mn1 Ni1,208,10.1016/j.actamat.2019.04.017,WROUGHT,FCC,,,,1.25,,8.1,,T,25.0,460.0,599.0,27.0,,182.0,203.0,2019
,Fe1 Mn1 Ni1,208,10.1016/j.actamat.2019.04.017,WROUGHT,FCC,,,,1.75,,8.1,,T,25.0,407.0,536.0,26.0,,182.0,203.0,2019
,Fe1 Mn1 Ni1,208,10.1016/j.actamat.2019.04.017,WROUGHT,FCC,,,,2.26,,8.1,,T,25.0,372.0,542.0,31.0,,182.0,203.0,2019
,Fe1 Mn1 Ni1,208,10.1016/j.actamat.2019.04.017,WROUGHT,FCC,,,,3.52,,8.1,,T,25.0,322.0,554.0,49.0,,182.0,203.0,2019
Fe1 Mo1 Nb1 Ti1 V1,,,,,,,,,,,,,,,,,,,,,
,Fe1 Mo1 Nb1 Ti1 V1,233,10.1007/s40195-019-00935-x,CAST,BCC+B2,,,,,,7.4,699.0,C,25.0,1707.0,,1.7,,,,2019
Fe1 Mo1 Ni1 Ti1 V1 Zr1,,,,,,,,,,,,,,,,,,,,,
,Fe1 Mo1 Ni1 Ti1 V1 Zr1,15,10.1002/adem.200300567,CAST,BCC+Sec.,,,,,,7.1,740.0,,25.0,,,,,,,2004
Hf0.25 Nb0.125 Ti1 V0.5 Zr0.5,,,,,,,,,,,,,,,,,,,,,
,Hf0.25 Nb0.125 Ti1 V0.5 Zr0.5,239,10.1007/s40195-019-00921-3,CAST,BCC,,,,,,6.6,332.4,C,25.0,1115.0,,50.0,,,100.0,2019
Hf0.25 Nb0.25 Ti1 V0.5 Zr0.5,,,,,,,,,,,,,,,,,,,,,
,Hf0.25 Nb0.25 Ti1 V0.5 Zr0.5,239,10.1007/s40195-019-00921-3,CAST,BCC,,,,,,6.7,322.5,C,25.0,1065.0,,50.0,,,100.0,2019
,Hf0.25 Nb0.25 Ti1 V0.5 Zr0.5,239,10.1007/s40195-019-00921-3,CAST,BCC,,,,,,6.7,322.5,C,600.0,718.0,,50.0,,,100.0,2019
,Hf0.25 Nb0.25 Ti1 V0.5 Zr0.5,239,10.1007/s40195-019-00921-3,CAST,BCC,,,,,,6.7,322.5,C,800.0,135.0,,50.0,,,100.0,2019
Hf0.25 Nb0.375 Ti1 V0.5 Zr0.5,,,,,,,,,,,,,,,,,,,,,
,Hf0.25 Nb0.375 Ti1 V0.5 Zr0.5,239,10.1007/s40195-019-00921-3,CAST,BCC,,,,,,6.8,318.9,C,25.0,1025.0,,50.0,,,100.0,2019
Hf0.25 Nb0.5 Ti1 V0.5 Zr0.5,,,,,,,,,,,,,,,,,,,,,
,Hf0.25 Nb0.5 Ti1 V0.5 Zr0.5,239,10.1007/s40195-019-00921-3,CAST,BCC,,,,,,6.9,310.4,C,25.0,980.0,,50.0,,,101.0,2019
,Hf0.25 Nb0.5 Ti1 V0.5 Zr0.5,239,10.1007/s40195-019-00921-3,CAST,BCC,,,,,,6.9,310.4,C,600.0,859.0,,50.0,,,101.0,2019
,Hf0.25 Nb0.5 Ti1 V0.5 Zr0.5,239,10.1007/s40195-019-00921-3,CAST,BCC,,,,,,6.9,310.4,C,800.0,195.0,,50.0,,,101.0,2019
Hf0.25 Ti1 V0.5 Zr0.5,,,,,,,,,,,,,,,,,,,,,
,Hf0.25 Ti1 V0.5 Zr0.5,239,10.1007/s40195-019-00921-3,CAST,BCC,,,,,,6.5,338.3,C,25.0,1160.0,,50.0,,,100.0,2019
,Hf0.25 Ti1 V0.5 Zr0.5,239,10.1007/s40195-019-00921-3,CAST,BCC,,,,,,6.5,338.3,C,600.0,405.0,,50.0,,,100.0,2019
,Hf0.25 Ti1 V0.5 Zr0.5,239,10.1007/s40195-019-00921-3,CAST,BCC,,,,,,6.5,338.3,C,800.0,85.0,,50.0,,,100.0,2019
Hf0.26 Nb1 Ta1 Ti0.578 Zr0.416,,,,,,,,,,,,,,,,,,,,,
,Hf0.26 Nb1 Ta1 Ti0.578 Zr0.416,72,10.1080/14786435.2015.1028506,CAST,BCC,,,,,,10.4,,C,60.0,795.0,,,,,122.0,2015
,Hf0.26 Nb1 Ta1 Ti0.578 Zr0.416,72,10.1080/14786435.2015.1028506,CAST,BCC,,,,,,10.4,,C,100.0,765.0,,,,,122.0,2015
,Hf0.26 Nb1 Ta1 Ti0.578 Zr0.416,72,10.1080/14786435.2015.1028506,CAST,BCC,,,,,,10.4,,C,200.0,650.0,,,,,122.0,2015
,Hf0.26 Nb1 Ta1 Ti0.578 Zr0.416,72,10.1080/14786435.2015.1028506,CAST,BCC,,,,,,10.4,,C,300.0,590.0,,,,,122.0,2015
,Hf0.26 Nb1 Ta1 Ti0.578 Zr0.416,72,10.1080/14786435.2015.1028506,CAST,BCC,,,,,,10.4,,C,25.0,845.0,,,,,122.0,2015
Hf0.333 Nb0.333 Ta0.333 Ti1 Zr0.667,,,,,,,,,,,,,,,,,,,,,
,Hf0.333 Nb0.333 Ta0.333 Ti1 Zr0.667,52,10.1063/1.4966659,CAST,BCC,,,,,,8.2,301.0,T,25.0,903.0,990.0,19.0,,,103.0,2016
Hf0.5 Mo0.5 Nb1 Si0.1 Ti1 Zr1,,,,,,,,,,,,,,,,,,,,,
,Hf0.5 Mo0.5 Nb1 Si0.1 Ti1 Zr1,73,10.1016/j.jallcom.2015.11.091,CAST,BCC+Sec.,,,,,,7.7,442.0,C,25.0,1350.0,2150.0,,28.0,,,2016
Hf0.5 Mo0.5 Nb1 Si0.3 Ti1 Zr1,,,,,,,,,,,,,,,,,,,,,
,Hf0.5 Mo0.5 Nb1 Si0.3 Ti1 Zr1,73,10.1016/j.jallcom.2015.11.091,CAST,BCC+Sec.,,,,,,7.5,494.0,C,25.0,1370.0,1950.0,,23.0,,,2016
Hf0.5 Mo0.5 Nb1 Si0.5 Ti1 Zr1,,,,,,,,,,,,,,,,,,,,,
,Hf0.5 Mo0.5 Nb1 Si0.5 Ti1 Zr1,73,10.1016/j.jallcom.2015.11.091,CAST,BCC+Sec.,,,,,,7.2,524.0,C,25.0,1600.0,1900.0,,23.0,,,2016
Hf0.5 Mo0.5 Nb1 Si0.7 Ti1 Zr1,,,,,,,,,,,,,,,,,,,,,
,Hf0.5 Mo0.5 Nb1 Si0.7 Ti1 Zr1,73,10.1016/j.jallcom.2015.11.091,CAST,BCC+Sec.,,,,,,7.0,580.0,C,25.0,1550.0,1900.0,,12.0,,,2016
Hf0.5 Mo0.5 Nb1 Si0.9 Ti1 Zr1,,,,,,,,,,,,,,,,,,,,,
,Hf0.5 Mo0.5 Nb1 Si0.9 Ti1 Zr1,73,10.1016/j.jallcom.2015.11.091,CAST,BCC+Sec.,,,,,,6.8,640.0,C,25.0,1650.0,2000.0,,9.0,,,2016
Hf0.5 Mo0.5 Nb1 Ti1 Zr1,,,,,,,,,,,,,,,,,,,,,
,Hf0.5 Mo0.5 Nb1 Ti1 Zr1,47,10.1016/j.intermet.2015.09.011,CAST,BCC,,,,,,7.9,,C,25.0,1176.0,1538.0,,,,115.0,2016
,Hf0.5 Mo0.5 Nb1 Ti1 Zr1,73,10.1016/j.jallcom.2015.11.091,CAST,BCC+Sec.,,,,,,7.9,400.0,C,25.0,1150.0,1500.0,,25.0,,,2016
Hf0.5 Nb0.667 Ta0.333 Ti1 Zr0.833,,,,,,,,,,,,,,,,,,,,,
,Hf0.5 Nb0.667 Ta0.333 Ti1 Zr0.833,74,10.1016/j.msea.2017.10.073,WROUGHT,BCC,,,,,,8.4,,C,-268.8,2250.0,,,,,100.0,2018
,Hf0.5 Nb0.667 Ta0.333 Ti1 Zr0.833,74,10.1016/j.msea.2017.10.073,WROUGHT,BCC,,,,,,8.4,,C,-268.8,2210.0,,,,,100.0,2018
,Hf0.5 Nb0.667 Ta0.333 Ti1 Zr0.833,74,10.1016/j.msea.2017.10.073,WROUGHT,BCC,,,,,,8.4,,C,-196.0,1880.0,,,,,100.0,2018
,Hf0.5 Nb0.667 Ta0.333 Ti1 Zr0.833,74,10.1016/j.msea.2017.10.073,WROUGHT,BCC,,,,,,8.4,,C,-196.0,1750.0,,,,,100.0,2018
,Hf0.5 Nb0.667 Ta0.333 Ti1 Zr0.833,74,10.1016/j.msea.2017.10.073,WROUGHT,BCC,,,,,,8.4,,C,-153.0,1640.0,,,,,100.0,2018
,Hf0.5 Nb0.667 Ta0.333 Ti1 Zr0.833,74,10.1016/j.msea.2017.10.073,WROUGHT,BCC,,,,,,8.4,,C,-153.0,1550.0,,,,,100.0,2018
,Hf0.5 Nb0.667 Ta0.333 Ti1 Zr0.833,74,10.1016/j.msea.2017.10.073,WROUGHT,BCC,,,,,,8.4,,C,-103.0,1380.0,,,,,100.0,2018
,Hf0.5 Nb0.667 Ta0.333 Ti1 Zr0.833,74,10.1016/j.msea.2017.10.073,WROUGHT,BCC,,,,,,8.4,,C,-103.0,1370.0,,,,,100.0,2018
,Hf0.5 Nb0.667 Ta0.333 Ti1 Zr0.833,74,10.1016/j.msea.2017.10.073,WROUGHT,BCC,,,,,,8.4,,C,-43.0,1200.0,,,,,100.0,2018
,Hf0.5 Nb0.667 Ta0.333 Ti1 Zr0.833,74,10.1016/j.msea.2017.10.073,WROUGHT,BCC,,,,,,8.4,,C,-43.0,1180.0,,,,,100.0,2018
,Hf0.5 Nb0.667 Ta0.333 Ti1 Zr0.833,74,10.1016/j.msea.2017.10.073,WROUGHT,BCC,,,,,,8.4,,C,72.0,1040.0,,,,,100.0,2018
,Hf0.5 Nb0.667 Ta0.333 Ti1 Zr0.833,74,10.1016/j.msea.2017.10.073,WROUGHT,BCC,,,,,,8.4,,C,72.0,1020.0,,,,,100.0,2018
,Hf0.5 Nb0.667 Ta0.333 Ti1 Zr0.833,74,10.1016/j.msea.2017.10.073,WROUGHT,BCC,,,,,,8.4,,C,25.0,1150.0,,,,,100.0,2018
,Hf0.5 Nb0.667 Ta0.333 Ti1 Zr0.833,74,10.1016/j.msea.2017.10.073,WROUGHT,BCC,,,,,,8.4,,C,25.0,1100.0,,,,,100.0,2018
,Hf0.5 Nb0.667 Ta0.333 Ti1 Zr0.833,74,10.1016/j.msea.2017.10.073,WROUGHT,BCC,,,,,,8.4,,C,-268.8,2390.0,,,,,100.0,2018
,Hf0.5 Nb0.667 Ta0.333 Ti1 Zr0.833,74,10.1016/j.msea.2017.10.073,WROUGHT,BCC,,,,,,8.4,,C,-196.0,1920.0,,,,,100.0,2018
,Hf0.5 Nb0.667 Ta0.333 Ti1 Zr0.833,74,10.1016/j.msea.2017.10.073,WROUGHT,BCC,,,,,,8.4,,C,-153.0,1370.0,,,,,100.0,2018
,Hf0.5 Nb0.667 Ta0.333 Ti1 Zr0.833,74,10.1016/j.msea.2017.10.073,WROUGHT,BCC,,,,,,8.4,,C,-103.0,1250.0,,,,,100.0,2018
,Hf0.5 Nb0.667 Ta0.333 Ti1 Zr0.833,74,10.1016/j.msea.2017.10.073,WROUGHT,BCC,,,,,,8.4,,C,-43.0,1020.0,,,,,100.0,2018
,Hf0.5 Nb0.667 Ta0.333 Ti1 Zr0.833,74,10.1016/j.msea.2017.10.073,WROUGHT,BCC,,,,,,8.4,,C,72.0,640.0,,,,,100.0,2018
,Hf0.5 Nb0.667 Ta0.333 Ti1 Zr0.833,74,10.1016/j.msea.2017.10.073,WROUGHT,BCC,,,,,,8.4,,C,25.0,890.0,,,,,100.0,2018
Hf0.787 Nb0.142 Ta0.142 Ti1 Zr0.787,,,,,,,,,,,,,,,,,,,,,
,Hf0.787 Nb0.142 Ta0.142 Ti1 Zr0.787,76,10.1080/21663831.2016.1221861,WROUGHT,BCC,,,,,,8.5,,T,25.0,540.0,995.0,,,,92.0,2016
Hf1 Mo0.25 Nb1 Ta1 Ti1 Zr1,,,,,,,,,,,,,,,,,,,,,
,Hf1 Mo0.25 Nb1 Ta1 Ti1 Zr1,48,10.1016/j.matlet.2016.03.133,CAST,BCC,,,,,,9.9,395.0,C,25.0,1112.0,,50.0,,96.0,115.0,2016
Hf1 Mo0.5 Nb1 Si0.3 Ti1 V0.5,,,,,,,,,,,,,,,,,,,,,