Alloy composition,FORMULA,IDENTIFIER: Reference ID,REFERENCE: doi,PROPERTY: Processing method,PROPERTY: Microstructure,PROPERTY: O content (wppm),PROPERTY: N content (wppm),PROPERTY: C content (wppm),PROPERTY: grain size ($\mu$m),PROPERTY: Exp. Density (g/cm$^3$),PROPERTY: Calculated Density (g/cm$^3$),PROPERTY: HV,PROPERTY: Type of test,PROPERTY: Test temperature ($^\circ$C),PROPERTY: YS (MPa),PROPERTY: UTS (MPa),PROPERTY: Elongation (%),PROPERTY: Elongation plastic (%),PROPERTY: Exp. Young modulus (GPa),PROPERTY: Calculated Young modulus (GPa),REFERENCE: year
Al1 Cr1 Fe1 Mo0.5 Ni1 Ti0.5,,,,,,,,,,,,,,,,,,,,,
,Al1 Cr1 Fe1 Mo0.5 Ni1 Ti0.5,264,10.1088/0256-307X/35/3/036102,CAST,BCC+B2,,,,,,6.5,751.7,C,25.0,2228.7,3166.2,,10.4,,,2018
Al1 Cr1 Fe1 Mo0.5 Ni1 Ti0.6,,,,,,,,,,,,,,,,,,,,,
,Al1 Cr1 Fe1 Mo0.5 Ni1 Ti0.6,264,10.1088/0256-307X/35/3/036102,CAST,BCC+B2,,,,,,6.4,756.1,C,25.0,1314.5,1314.5,,,,,2018
Al1 Cr1 Fe1 Mo0.5 Ni1 Ti0.75,,,,,,,,,,,,,,,,,,,,,
,Al1 Cr1 Fe1 Mo0.5 Ni1 Ti0.75,264,10.1088/0256-307X/35/3/036102,CAST,BCC+B2,,,,,,6.4,766.2,C,25.0,618.8,618.8,,,,,2018
Al1 Cr1 Fe1 Mo0.8 Ni1,,,,,,,,,,,,,,,,,,,,,
,Al1 Cr1 Fe1 Mo0.8 Ni1,19,10.1016/j.jallcom.2013.03.253,CAST,B2+Sec.,,,,,,7.0,854.0,C,25.0,1513.0,1513.0,,0.0,,,2013
Al1 Cr1 Fe1 Mo1 Ni1,,,,,,,,,,,,,,,,,,,,,
,Al1 Cr1 Fe1 Mo1 Ni1,19,10.1016/j.jallcom.2013.03.253,CAST,B2+Sec.,,,,,,7.2,905.0,,25.0,,,,,,,2013
Al1 Cr1 Fe1 Ni1,,,,,,,,,,,,,,,,,,,,,
,Al1 Cr1 Fe1 Ni1,19,10.1016/j.jallcom.2013.03.253,CAST,BCC+B2,,,,,,6.3,472.0,C,25.0,1406.0,2927.0,,29.0,,,2013
,Al1 Cr1 Fe1 Ni1,193,10.1016/j.msea.2016.11.019,CAST,BCC+B2,,,,,,6.3,,C,25.0,843.2,,34.6,,,,2017
,Al1 Cr1 Fe1 Ni1,227,10.1016/j.jallcom.2018.07.346,,,,,,,,6.3,,C,25.0,1271.0,,14.0,,,,2018
Al1 Cr1 Mo1 Nb1,,,,,,,,,,,,,,,,,,,,,
,Al1 Cr1 Mo1 Nb1,265,10.1016/j.matdes.2018.06.003,ANNEAL,Other,,,,,,7.2,,,,,,,,,,2018
,Al1 Cr1 Mo1 Nb1,265,10.1016/j.matdes.2018.06.003,CAST,Other,,,,,,7.2,,,,,,,,,,2018
Al1 Cr1 Mo1 Nb1 Ti1,,,,,,,,,,,,,,,,,,,,,
,Al1 Cr1 Mo1 Nb1 Ti1,65,10.1016/j.jallcom.2015.11.050,CAST,BCC,92.0,,,,,6.6,,C,25.0,,,,,,170.0,2016
,Al1 Cr1 Mo1 Nb1 Ti1,65,10.1016/j.jallcom.2015.11.050,CAST,BCC,92.0,,,,,6.6,,C,400.0,1080.0,1100.0,2.0,,,170.0,2016
,Al1 Cr1 Mo1 Nb1 Ti1,65,10.1016/j.jallcom.2015.11.050,CAST,BCC,92.0,,,,,6.6,,C,600.0,1060.0,1170.0,3.0,,,170.0,2016
,Al1 Cr1 Mo1 Nb1 Ti1,65,10.1016/j.jallcom.2015.11.050,CAST,BCC,92.0,,,,,6.6,,C,800.0,860.0,1000.0,2.0,,,170.0,2016
,Al1 Cr1 Mo1 Nb1 Ti1,65,10.1016/j.jallcom.2015.11.050,CAST,BCC,92.0,,,,,6.6,,C,1000.0,594.0,630.0,15.0,,,170.0,2016
,Al1 Cr1 Mo1 Nb1 Ti1,65,10.1016/j.jallcom.2015.11.050,CAST,BCC,92.0,,,,,6.6,,C,1200.0,105.0,116.0,24.0,,,170.0,2016
,Al1 Cr1 Mo1 Nb1 Ti1,67,10.1007/s11661-017-4386-1,ANNEAL,BCC,92.0,,,,,6.6,,C,600.0,930.0,,,,,170.0,2017
,Al1 Cr1 Mo1 Nb1 Ti1,67,10.1007/s11661-017-4386-1,ANNEAL,BCC,,,,,,6.6,,C,800.0,875.0,,,,,170.0,2017
,Al1 Cr1 Mo1 Nb1 Ti1,67,10.1007/s11661-017-4386-1,ANNEAL,BCC,,,,,,6.6,,C,1000.0,550.0,,,,,170.0,2017
,Al1 Cr1 Mo1 Nb1 Ti1,67,10.1007/s11661-017-4386-1,ANNEAL,BCC,,,,,,6.6,,C,1200.0,150.0,,,,,170.0,2017
,Al1 Cr1 Mo1 Nb1 Ti1,165,10.1016/j.actamat.2019.06.032,ANNEAL,BCC+Laves,,,,,6.56,6.6,,C,23.0,1010.0,,,,,,2019
,Al1 Cr1 Mo1 Nb1 Ti1,165,10.1016/j.actamat.2019.06.032,ANNEAL,BCC+Laves,,,,,6.56,6.6,,C,1000.0,550.0,,,,,,2019
,Al1 Cr1 Mo1 Nb1 Ti1,165,10.1016/j.actamat.2019.06.032,ANNEAL,BCC+Laves,,,,,6.56,6.6,,C,1200.0,105.0,,,,,,2019
Al1 Cr1 Mo1 Ti1,,,,,,,,,,,,,,,,,,,,,
,Al1 Cr1 Mo1 Ti1,67,10.1007/s11661-017-4386-1,ANNEAL,BCC,,,,,,6.0,,C,400.0,1070.0,,,,,189.0,2017
,Al1 Cr1 Mo1 Ti1,67,10.1007/s11661-017-4386-1,ANNEAL,BCC,,,,,,6.0,,C,600.0,1020.0,,,,,189.0,2017
,Al1 Cr1 Mo1 Ti1,67,10.1007/s11661-017-4386-1,ANNEAL,BCC,,,,,,6.0,,C,800.0,875.0,,,,,189.0,2017
,Al1 Cr1 Mo1 Ti1,67,10.1007/s11661-017-4386-1,ANNEAL,BCC,,,,,,6.0,,C,1000.0,375.0,,,,,189.0,2017
,Al1 Cr1 Mo1 Ti1,67,10.1007/s11661-017-4386-1,ANNEAL,BCC,,,,,,6.0,,C,1200.0,100.0,,,,,189.0,2017
,Al1 Cr1 Mo1 Ti1,165,10.1016/j.actamat.2019.06.032,ANNEAL,BCC,,,,,5.98,6.0,,C,23.0,1100.0,,,,,189.0,2019
,Al1 Cr1 Mo1 Ti1,165,10.1016/j.actamat.2019.06.032,ANNEAL,BCC,,,,,5.98,6.0,,C,1000.0,375.0,,,,,189.0,2019
,Al1 Cr1 Mo1 Ti1,165,10.1016/j.actamat.2019.06.032,ANNEAL,BCC,,,,,5.98,6.0,,C,1200.0,100.0,,,,,189.0,2019
Al1 Cr1 Nb1 Ti1 V1,,,,,,,,,,,,,,,,,,,,,
,Al1 Cr1 Nb1 Ti1 V1,97,10.1016/j.jallcom.2015.08.224,ANNEAL,BCC+Laves,,,,,,5.8,,C,600.0,1015.0,1060.0,,,,,2015
,Al1 Cr1 Nb1 Ti1 V1,97,10.1016/j.jallcom.2015.08.224,ANNEAL,BCC+Laves,,,,,,5.8,,C,800.0,860.0,895.0,,,,,2015
,Al1 Cr1 Nb1 Ti1 V1,97,10.1016/j.jallcom.2015.08.224,ANNEAL,BCC+Laves,,,,,,5.8,,C,1000.0,65.0,95.0,,,,,2015
,Al1 Cr1 Nb1 Ti1 V1,97,10.1016/j.jallcom.2015.08.224,ANNEAL,BCC+Laves,,,,,,5.8,,C,25.0,1550.0,1570.0,,,,,2015
Al1 Cu0.062 Li0.062 Mg0.062 Zn0.062,,,,,,,,,,,,,,,,,,,,,
,Al1 Cu0.062 Li0.062 Mg0.062 Zn0.062,36,10.1007/s11837-015-1402-z,CAST,FCC+Sec.,,,,,,2.9,,C,25.0,488.0,879.0,17.0,,,,2015
Al1 Cu0.077 Fe0.077 Mg0.077 Si0.231 Zn0.077,,,,,,,,,,,,,,,,,,,,,
,Al1 Cu0.077 Fe0.077 Mg0.077 Si0.231 Zn0.077,101,10.1038/s41598-019-43329-w,CAST,FCC,,,,,3.08,3.2,,C,25.0,422.0,,1.0,,88.7,73.0,2019
Al1 Cu0.077 Mg0.077 Mn0.077 Si0.231 Zn0.077,,,,,,,,,,,,,,,,,,,,,
,Al1 Cu0.077 Mg0.077 Mn0.077 Si0.231 Zn0.077,101,10.1038/s41598-019-43329-w,CAST,FCC,,,,,2.98,3.2,,C,25.0,622.0,,2.0,,114.1,73.0,2019
Al1 Cu0.077 Mg0.077 Ni0.077 Si0.231 Zn0.077,,,,,,,,,,,,,,,,,,,,,
,Al1 Cu0.077 Mg0.077 Ni0.077 Si0.231 Zn0.077,101,10.1038/s41598-019-43329-w,CAST,FCC,,,,,3.15,3.2,,C,25.0,534.0,,1.0,,107.8,72.0,2019
Al1 Cu0.077 Mg0.077 Si0.231 Zn0.077 Zr0.077,,,,,,,,,,,,,,,,,,,,,
,Al1 Cu0.077 Mg0.077 Si0.231 Zn0.077 Zr0.077,101,10.1038/s41598-019-43329-w,CAST,FCC+Laves,,,,,3.06,3.2,,C,25.0,565.0,,4.0,,105.1,,2019
Al1 Cu0.2 Li0.5 Mg1 Zn0.5,,,,,,,,,,,,,,,,,,,,,
,Al1 Cu0.2 Li0.5 Mg1 Zn0.5,36,10.1007/s11837-015-1402-z,CAST,Other,,,,,,2.7,,,25.0,,,,,,,2015
Al1 Cu0.5 Li0.5 Mg1 Sn0.2,,,,,,,,,,,,,,,,,,,,,
,Al1 Cu0.5 Li0.5 Mg1 Sn0.2,36,10.1007/s11837-015-1402-z,CAST,Other,,,,,,3.0,,,25.0,,,,,,,2015
Al1 Cu0.889 Fe0.667 Ni0.889 Ti1,,,,,,,,,,,,,,,,,,,,,
,Al1 Cu0.889 Fe0.667 Ni0.889 Ti1,35,10.1016/j.apsusc.2015.07.207,CAST,FCC,,,,,,5.9,516.0,C,25.0,980.0,1326.0,,7.0,145.0,131.0,2015
Al1 Cu1 Fe1 Ni1 Ti1,,,,,,,,,,,,,,,,,,,,,
,Al1 Cu1 Fe1 Ni1 Ti1,35,10.1016/j.apsusc.2015.07.207,CAST,FCC,,,,,,6.1,516.0,C,25.0,1074.0,1617.0,,8.0,146.0,137.0,2015
Al1 Cu1 Ni1 Ti1,,,,,,,,,,,,,,,,,,,,,
,Al1 Cu1 Ni1 Ti1,35,10.1016/j.apsusc.2015.07.207,CAST,FCC,,,,,,5.7,537.0,C,25.0,300.0,536.0,,0.85,108.0,122.0,2015
Al1 Fe1 Ni1 Ti1,,,,,,,,,,,,,,,,,,,,,
,Al1 Fe1 Ni1 Ti1,209,10.1016/j.jallcom.2019.02.083,POWDER,BCC+B2,,,,,,5.5,666.0,C,25.0,,,,,,,2019
Al1 Fe1 Ni1 Ti1 V1 Zr1,,,,,,,,,,,,,,,,,,,,,
,Al1 Fe1 Ni1 Ti1 V1 Zr1,15,10.1002/adem.200300567,CAST,BCC,,,,,,5.9,800.0,,25.0,,,,,,119.0,2004
Al1 Hf1 Nb1 Ta1 Ti1 Zr1,,,,,,,,,,,,,,,,,,,,,
,Al1 Hf1 Nb1 Ta1 Ti1 Zr1,40,10.1016/j.jallcom.2014.11.064,CAST,BCC+Sec.,,,,92.0,,8.9,441.0,C,25.0,1489.0,1900.0,21.0,,103.0,,2015
Al1 Hf1 Nb1 Ti1,,,,,,,,,,,,,,,,,,,,,
,Al1 Hf1 Nb1 Ti1,265,10.1016/j.matdes.2018.06.003,ANNEAL,B2,,,,,,7.7,,,,,,,,,,2018
,Al1 Hf1 Nb1 Ti1,265,10.1016/j.matdes.2018.06.003,CAST,B2,,,,,,7.7,,,,,,,,,,2018
Al1 Hf1 Ta1 Ti1,,,,,,,,,,,,,,,,,,,,,
,Al1 Hf1 Ta1 Ti1,265,10.1016/j.matdes.2018.06.003,ANNEAL,B2,,,,,,9.7,,,,,,,,,,2018
,Al1 Hf1 Ta1 Ti1,265,10.1016/j.matdes.2018.06.003,CAST,B2,,,,,,9.7,,,,,,,,,,2018
Al1 Li0.062 Mg0.062 Sn0.062 Zn0.062,,,,,,,,,,,,,,,,,,,,,
,Al1 Li0.062 Mg0.062 Sn0.062 Zn0.062,36,10.1007/s11837-015-1402-z,CAST,FCC+Sec.,,,,,,3.0,,C,25.0,415.0,836.0,16.0,,,,2015
Al1 Li0.5 Mg1 Sn0.2 Zn0.5,,,,,,,,,,,,,,,,,,,,,
,Al1 Li0.5 Mg1 Sn0.2 Zn0.5,36,10.1007/s11837-015-1402-z,CAST,FCC+Sec.,,,,,,2.9,,C,25.0,546.0,546.0,,,,,2015
Al1 Li1 Mg1 Sn1 Zn1,,,,,,,,,,,,,,,,,,,,,
,Al1 Li1 Mg1 Sn1 Zn1,36,10.1007/s11837-015-1402-z,CAST,FCC+HCP+Sec.,,,,,,3.9,,C,25.0,600.0,615.0,1.0,,,,2015
Al1 Mo0.5 Nb1 Ta0.5 Ti1 Zr0.5,,,,,,,,,,,,,,,,,,,,,
,Al1 Mo0.5 Nb1 Ta0.5 Ti1 Zr0.5,77,10.1016/j.matdes.2017.11.033,OTHER,B2,,,,,,7.2,,C,1000.0,935.0,1019.0,,,,,2018
,Al1 Mo0.5 Nb1 Ta0.5 Ti1 Zr0.5,77,10.1016/j.matdes.2017.11.033,OTHER,B2,,,,,,7.2,,C,25.0,,1320.0,,,,,2018
Al1 Mo0.5 Nb1 Ta0.5 Ti1 Zr1,,,,,,,,,,,,,,,,,,,,,
,Al1 Mo0.5 Nb1 Ta0.5 Ti1 Zr1,39,10.1007/s11837-014-1066-0,OTHER,BCC+B2,,,,75.0,,7.1,591.0,C,25.0,2000.0,2368.0,10.0,,,,2014
,Al1 Mo0.5 Nb1 Ta0.5 Ti1 Zr1,39,10.1007/s11837-014-1066-0,OTHER,BCC+B2,,,,,,7.1,,C,800.0,1597.0,1810.0,11.0,,,,2014
,Al1 Mo0.5 Nb1 Ta0.5 Ti1 Zr1,39,10.1007/s11837-014-1066-0,OTHER,BCC+B2,,,,,,7.1,,C,1000.0,745.0,772.0,50.0,,,,2014
,Al1 Mo0.5 Nb1 Ta0.5 Ti1 Zr1,39,10.1007/s11837-014-1066-0,OTHER,BCC+B2,,,,,,7.1,,C,1200.0,250.0,,50.0,,,,2014
,Al1 Mo0.5 Nb1 Ta0.5 Ti1 Zr1,77,10.1016/j.matdes.2017.11.033,OTHER,BCC+B2,,,,,,7.1,,C,25.0,2197.0,2370.0,,,,,2018
,Al1 Mo0.5 Nb1 Ta0.5 Ti1 Zr1,165,10.1016/j.actamat.2019.06.032,OTHER,B2+BCC,,,,,7.14,7.1,,C,23.0,2000.0,,,,,,2019
,Al1 Mo0.5 Nb1 Ta0.5 Ti1 Zr1,165,10.1016/j.actamat.2019.06.032,OTHER,B2+BCC,,,,,7.14,7.1,,C,1000.0,745.0,,,,,,2019
,Al1 Mo0.5 Nb1 Ta0.5 Ti1 Zr1,165,10.1016/j.actamat.2019.06.032,OTHER,B2+BCC,,,,,7.14,7.1,,C,1200.0,250.0,,,,,,2019
Al1 Mo1 Nb1 Ti1,,,,,,,,,,,,,,,,,,,,,
,Al1 Mo1 Nb1 Ti1,67,10.1007/s11661-017-4386-1,ANNEAL,BCC,,,,,,6.5,,C,600.0,520.0,,,,,151.0,2017
,Al1 Mo1 Nb1 Ti1,67,10.1007/s11661-017-4386-1,ANNEAL,BCC,,,,,,6.5,,C,800.0,500.0,,,,,151.0,2017
,Al1 Mo1 Nb1 Ti1,67,10.1007/s11661-017-4386-1,ANNEAL,BCC,,,,,,6.5,,C,1000.0,540.0,,,,,151.0,2017
,Al1 Mo1 Nb1 Ti1,67,10.1007/s11661-017-4386-1,ANNEAL,BCC,,,,,,6.5,,C,1200.0,200.0,,,,,151.0,2017
,Al1 Mo1 Nb1 Ti1,165,10.1016/j.actamat.2019.06.032,ANNEAL,BCC,,,,,6.46,6.5,,C,23.0,1100.0,,,,,151.0,2019
,Al1 Mo1 Nb1 Ti1,165,10.1016/j.actamat.2019.06.032,ANNEAL,BCC,,,,,6.46,6.5,,C,1000.0,540.0,,,,,151.0,2019
,Al1 Mo1 Nb1 Ti1,165,10.1016/j.actamat.2019.06.032,ANNEAL,BCC,,,,,6.46,6.5,,C,1200.0,200.0,,,,,151.0,2019
,Al1 Mo1 Nb1 Ti1,265,10.1016/j.matdes.2018.06.003,ANNEAL,BCC+Sec.,,,,,,6.5,,,,,,,,,,2018
,Al1 Mo1 Nb1 Ti1,265,10.1016/j.matdes.2018.06.003,CAST,BCC,,,,,,6.5,509.0,,,,,,,,151.0,2018
Al1 Mo1 Nb1 Ti1 V1,,,,,,,,,,,,,,,,,,,,,
,Al1 Mo1 Nb1 Ti1 V1,41,10.3390/e16020870,CAST,BCC,,,,,,6.4,537.0,C,25.0,1375.0,1400.0,3.0,,,147.0,2014
Al1 Mo1 Ta1 Ti1 V1,,,,,,,,,,,,,,,,,,,,,
,Al1 Mo1 Ta1 Ti1 V1,86,10.4028/www.scientific.net/MSF.898.638,CAST,BCC,,,,,,8.2,,C,25.0,,735.0,,,,165.0,2017
Al1 Nb1 Ta0.5 Ti1 Zr0.5,,,,,,,,,,,,,,,,,,,,,
,Al1 Nb1 Ta0.5 Ti1 Zr0.5,77,10.1016/j.matdes.2017.11.033,OTHER,B2,,,,,,6.9,,C,1000.0,535.0,542.0,,,,,2018
,Al1 Nb1 Ta0.5 Ti1 Zr0.5,77,10.1016/j.matdes.2017.11.033,OTHER,B2,,,,,,6.9,,C,25.0,1352.0,1357.0,,,,,2018
Al1 Nb1 Ta1 Ti1,,,,,,,,,,,,,,,,,,,,,
,Al1 Nb1 Ta1 Ti1,238,10.1016/j.actamat.2019.06.006,CAST,BCC,180.0,5.0,,,,8.2,,C,20.0,1152.0,,,,,120.0,2019
,Al1 Nb1 Ta1 Ti1,238,10.1016/j.actamat.2019.06.006,CAST,BCC,180.0,5.0,,,,8.2,,C,200.0,740.0,,,,,120.0,2019
,Al1 Nb1 Ta1 Ti1,238,10.1016/j.actamat.2019.06.006,CAST,BCC,180.0,5.0,,,,8.2,,C,100.0,740.0,,,,,120.0,2019
,Al1 Nb1 Ta1 Ti1,265,10.1016/j.matdes.2018.06.003,ANNEAL,BCC+Sec.,,,,,,8.2,,,,,,,,,,2018
,Al1 Nb1 Ta1 Ti1,265,10.1016/j.matdes.2018.06.003,CAST,BCC,,,,,,8.2,458.0,,,,,,,,120.0,2018
Al1 Nb1 Ta1 Ti1 V1,,,,,,,,,,,,,,,,,,,,,
,Al1 Nb1 Ta1 Ti1 V1,42,10.1016/j.proeng.2012.03.043,CAST,BCC,,,,,,7.9,,C,25.0,993.0,,,,,122.0,2012
Al1 Nb1 Ti1 V1,,,,,,,,,,,,,,,,,,,,,
,Al1 Nb1 Ti1 V1,43,10.1016/j.matlet.2014.11.162,ANNEAL,BCC,,,,350.0,,5.5,448.0,C,25.0,1020.0,1318.0,,5.0,,104.0,2015
,Al1 Nb1 Ti1 V1,43,10.1016/j.matlet.2014.11.162,ANNEAL,BCC,,,,,,5.5,,C,600.0,810.0,1050.0,,12.0,,104.0,2015
,Al1 Nb1 Ti1 V1,43,10.1016/j.matlet.2014.11.162,ANNEAL,BCC,,,,,,5.5,,C,800.0,685.0,,,50.0,,104.0,2015
,Al1 Nb1 Ti1 V1,43,10.1016/j.matlet.2014.11.162,ANNEAL,BCC,,,,,,5.5,,C,1000.0,158.0,,,50.0,,104.0,2015
,Al1 Nb1 Ti1 V1,68,10.1016/j.msea.2017.08.019,ANNEAL,B2,,,,,,5.5,,C,600.0,780.0,1005.0,,,,,2017
,Al1 Nb1 Ti1 V1,68,10.1016/j.msea.2017.08.019,ANNEAL,B2,,,,,,5.5,,C,800.0,560.0,700.0,,,,,2017
,Al1 Nb1 Ti1 V1,68,10.1016/j.msea.2017.08.019,ANNEAL,B2,,,,,,5.5,,C,25.0,1000.0,1280.0,,,,,2017
,Al1 Nb1 Ti1 V1,97,10.1016/j.jallcom.2015.08.224,ANNEAL,BCC,,,,,,5.5,,C,600.0,780.0,1005.0,,,,104.0,2015
,Al1 Nb1 Ti1 V1,97,10.1016/j.jallcom.2015.08.224,ANNEAL,BCC,,,,,,5.5,,C,800.0,560.0,700.0,,,,104.0,2015
,Al1 Nb1 Ti1 V1,97,10.1016/j.jallcom.2015.08.224,ANNEAL,BCC,,,,,,5.5,,C,1000.0,110.0,,,,,104.0,2015
,Al1 Nb1 Ti1 V1,97,10.1016/j.jallcom.2015.08.224,ANNEAL,BCC,,,,,,5.5,,C,25.0,1000.0,1280.0,,,,104.0,2015
Al1 Nb1 Ti1 V1 Zr0.1,,,,,,,,,,,,,,,,,,,,,
,Al1 Nb1 Ti1 V1 Zr0.1,68,10.1016/j.msea.2017.08.019,ANNEAL,B2+Sec.,,,,,,5.5,,C,600.0,975.0,1085.0,,,,,2017
,Al1 Nb1 Ti1 V1 Zr0.1,68,10.1016/j.msea.2017.08.019,ANNEAL,B2+Sec.,,,,,,5.5,,C,800.0,865.0,920.0,,,,,2017
,Al1 Nb1 Ti1 V1 Zr0.1,68,10.1016/j.msea.2017.08.019,ANNEAL,B2+Sec.,,,,,,5.5,,C,25.0,1290.0,1395.0,,,,,2017
Al1 Nb1 Ti1 V1 Zr0.25,,,,,,,,,,,,,,,,,,,,,
,Al1 Nb1 Ti1 V1 Zr0.25,68,10.1016/j.msea.2017.08.019,ANNEAL,B2+Sec.,,,,,,5.6,,C,600.0,1065.0,1260.0,,,,,2017
,Al1 Nb1 Ti1 V1 Zr0.25,68,10.1016/j.msea.2017.08.019,ANNEAL,B2+Sec.,,,,,,5.6,,C,800.0,855.0,865.0,,,,,2017
,Al1 Nb1 Ti1 V1 Zr0.25,68,10.1016/j.msea.2017.08.019,ANNEAL,B2+Sec.,,,,,,5.6,,C,25.0,1360.0,1480.0,,,,,2017
Al1 Nb1 Ti1 V1 Zr0.5,,,,,,,,,,,,,,,,,,,,,
,Al1 Nb1 Ti1 V1 Zr0.5,68,10.1016/j.msea.2017.08.019,ANNEAL,B2+Laves+Sec.,,,,,,5.6,,C,600.0,1135.0,1425.0,,,,,2017
,Al1 Nb1 Ti1 V1 Zr0.5,68,10.1016/j.msea.2017.08.019,ANNEAL,B2+Laves+Sec.,,,,,,5.6,,C,800.0,675.0,740.0,,,,,2017
,Al1 Nb1 Ti1 V1 Zr0.5,68,10.1016/j.msea.2017.08.019,ANNEAL,B2+Laves+Sec.,,,,,,5.6,,C,25.0,1485.0,,,,,,2017
,Al1 Nb1 Ti1 V1 Zr0.5,132,10.1016/j.matlet.2015.08.099,,,,,,,5.64,5.6,,C,25.0,1480.0,,50.0,,,,2015
Al1 Nb1 Ti1 V1 Zr1,,,,,,,,,,,,,,,,,,,,,
,Al1 Nb1 Ti1 V1 Zr1,68,10.1016/j.msea.2017.08.019,ANNEAL,B2+Laves+Sec.,,,,,,5.8,,C,600.0,1155.0,1385.0,,,,,2017
,Al1 Nb1 Ti1 V1 Zr1,68,10.1016/j.msea.2017.08.019,ANNEAL,B2+Laves+Sec.,,,,,,5.8,,C,800.0,550.0,600.0,,,,,2017
,Al1 Nb1 Ti1 V1 Zr1,68,10.1016/j.msea.2017.08.019,ANNEAL,B2+Laves+Sec.,,,,,,5.8,,C,25.0,1500.0,1675.0,,,,,2017
Al1 Nb1 Ti1 Zr1,,,,,,,,,,,,,,,,,,,,,
,Al1 Nb1 Ti1 Zr1,131,10.1080/02670836.2018.1446267,CAST,B2,,,,250.0,5.85,5.7,422.0,C,25.0,1509.0,,8.6,,,,2018
,Al1 Nb1 Ti1 Zr1,131,10.1080/02670836.2018.1446267,ANNEAL,B2+Sec.,,,,,,5.7,418.0,C,25.0,1579.0,,17.8,,,,2018
,Al1 Nb1 Ti1 Zr1,133,10.1179/1743284715Y.0000000032,,,,,,,5.79,5.7,539.6,C,25.0,1080.0,,5.9,,,,2015
B0.006 Co0.201 Cr0.201 Fe1 Mn0.604,,,,,,,,,,,,,,,,,,,,,
,B0.006 Co0.201 Cr0.201 Fe1 Mn0.604,110,10.1016/j.msea.2019.01.088,CAST,FCC+Sec.,,,,,,7.8,282.0,,,,,,,,,2019
B0.012 Co0.202 Cr0.202 Fe1 Mn0.607,,,,,,,,,,,,,,,,,,,,,
,B0.012 Co0.202 Cr0.202 Fe1 Mn0.607,110,10.1016/j.msea.2019.01.088,CAST,FCC+Sec.,,,,,,7.8,306.0,,,,,,,,,2019
B0.035 Co0.207 Cr0.207 Fe1 Mn0.621,,,,,,,,,,,,,,,,,,,,,
,B0.035 Co0.207 Cr0.207 Fe1 Mn0.621,110,10.1016/j.msea.2019.01.088,CAST,FCC+Sec.,,,,,,7.7,452.0,,,,,,,,,2019
C0.02 Co1 Cr1 Fe1 Mn1 Ni1,,,,,,,,,,,,,,,,,,,,,
,C0.02 Co1 Cr1 Fe1 Mn1 Ni1,177,10.1080/02670836.2017.1342367,WROUGHT,FCC+Sec.,,,,8.0,,8.0,,T,25.0,446.0,723.0,15.0,,,,2017
,C0.02 Co1 Cr1 Fe1 Mn1 Ni1,177,10.1080/02670836.2017.1342367,WROUGHT,FCC+Sec.,,,,4.0,,8.0,,T,25.0,581.0,857.0,28.0,,,,2017
C0.041 Co1 Cr1 Fe1 Mn1 Nb0.041 Ni1,,,,,,,,,,,,,,,,,,,,,
,C0.041 Co1 Cr1 Fe1 Mn1 Nb0.041 Ni1,249,10.1016/j.jallcom.2019.04.121,WROUGHT,FCC+Sec.,,,,,,8.0,,T,25.0,732.0,911.0,,32.0,,,2019
C0.053 Co1 Cr1 Fe1 Mn1 Ni1,,,,,,,,,,,,,,,,,,,,,
,C0.053 Co1 Cr1 Fe1 Mn1 Ni1,242,10.1007/s40195-019-00916-0,ANNEAL,FCC+Sec.,,,,,,8.0,345.0,C,800.0,,,,,,,2019
,C0.053 Co1 Cr1 Fe1 Mn1 Ni1,242,10.1007/s40195-019-00916-0,ANNEAL,FCC+Sec.,,,,,,8.0,285.0,C,1000.0,,,,,,,2019
C0.1 Co1 Cr1 Fe1 Mn1 Ni1 Ti0.1,,,,,,,,,,,,,,,,,,,,,
,C0.1 Co1 Cr1 Fe1 Mn1 Ni1 Ti0.1,253,10.1016/j.vacuum.2019.04.043,POWDER,FCC+Sec.,,,,,7.5,7.8,457.0,C,25.0,1616.0,,,4.5,,,2019
,C0.1 Co1 Cr1 Fe1 Mn1 Ni1 Ti0.1,253,10.1016/j.vacuum.2019.04.043,POWDER,FCC+Sec.,,,,,7.64,7.8,461.0,C,25.0,1652.0,,,10.0,,,2019
,C0.1 Co1 Cr1 Fe1 Mn1 Ni1 Ti0.1,253,10.1016/j.vacuum.2019.04.043,POWDER,FCC+Sec.,,,,,7.66,7.8,428.0,C,25.0,1490.0,,,11.4,,,2019
,C0.1 Co1 Cr1 Fe1 Mn1 Ni1 Ti0.1,253,10.1016/j.vacuum.2019.04.043,POWDER,FCC+Sec.,,,,,7.69,7.8,378.0,C,25.0,1194.0,,,20.1,,,2019
C0.1 Hf0.5 Mo0.5 Nb1 Ti1 Zr1,,,,,,,,,,,,,,,,,,,,,
,C0.1 Hf0.5 Mo0.5 Nb1 Ti1 Zr1,47,10.1016/j.intermet.2015.09.011,CAST,BCC+Sec.,,,,,,7.8,,C,25.0,1183.0,2139.0,38.0,,,,2016
C0.111 Co1 Cr1 Fe1 Ni1 W0.111,,,,,,,,,,,,,,,,,,,,,
,C0.111 Co1 Cr1 Fe1 Ni1 W0.111,128,10.3390/coatings9010016,POWDER,FCC,,,,0.0189,7.24,8.5,475.0,,,,,,,,,2018
C0.2 Mo1 Nb1 Re0.5 Ta0.2 W1,,,,,,,,,,,,,,,,,,,,,
,C0.2 Mo1 Nb1 Re0.5 Ta0.2 W1,219,10.1016/j.jallcom.2018.11.111,CAST,BCC+Sec.,,,,,,13.5,510.0,C,25.0,1074.0,,12.1,8.33,,,2019
C0.3 Hf0.5 Mo0.5 Nb1 Ti1 Zr1,,,,,,,,,,,,,,,,,,,,,
,C0.3 Hf0.5 Mo0.5 Nb1 Ti1 Zr1,47,10.1016/j.intermet.2015.09.011,CAST,BCC+Sec.,,,,,,7.7,,C,25.0,1201.0,1965.0,33.0,,,,2016
C0.4 Mo1 Nb1 Re0.5 Ta0.4 W1,,,,,,,,,,,,,,,,,,,,,
,C0.4 Mo1 Nb1 Re0.5 Ta0.4 W1,219,10.1016/j.jallcom.2018.11.111,CAST,BCC+Sec.,,,,,,13.4,558.0,C,25.0,1144.0,,12.7,8.81,,,2019
C0.429 Co1 Cr1 Fe1 Ni1 W0.429,,,,,,,,,,,,,,,,,,,,,
,C0.429 Co1 Cr1 Fe1 Ni1 W0.429,128,10.3390/coatings9010016,POWDER,FCC,,,,0.0182,8.39,9.1,531.0,,,,,,,,,2018
C0.5 Co1 Cr1 Fe1 Mn1 Ni1,,,,,,,,,,,,,,,,,,,,,
,C0.5 Co1 Cr1 Fe1 Mn1 Ni1,143,10.1016/j.msea.2019.01.050,WROUGHT,FCC,,,36380.0,4.7,,7.6,,T,25.0,520.9,791.4,40.3,,,,2019
C0.5 Mo1 Nb1 Re0.5 Ta0.5 W1,,,,,,,,,,,,,,,,,,,,,
,C0.5 Mo1 Nb1 Re0.5 Ta0.5 W1,219,10.1016/j.jallcom.2018.11.111,CAST,BCC+Sec.,,,,,,13.3,583.0,C,25.0,1202.0,,14.2,10.25,,,2019
C0.6 Mo1 Nb1 Re0.5 Ta0.6 W1,,,,,,,,,,,,,,,,,,,,,
,C0.6 Mo1 Nb1 Re0.5 Ta0.6 W1,219,10.1016/j.jallcom.2018.11.111,CAST,BCC+Sec.,,,,,,13.3,615.0,C,25.0,1241.0,,13.8,9.64,,,2019
C1 Co1 Cr1 Fe1 Mn1 Ni1,,,,,,,,,,,,,,,,,,,,,
,C1 Co1 Cr1 Fe1 Mn1 Ni1,143,10.1016/j.msea.2019.01.050,WROUGHT,FCC,,,30300.0,3.5,,7.3,,T,25.0,643.8,887.6,31.9,,,,2019
Co0.043 Nb0.638 Ni1 Ta0.255 Ti0.191,,,,,,,,,,,,,,,,,,,,,
,Co0.043 Nb0.638 Ni1 Ta0.255 Ti0.191,262,10.1038/s41467-019-10533-1,CAST,,,,,,,9.5,815.0,,25.0,,,,,,,2019
Co0.067 Cu0.067 Fe0.067 Nb1 Ni0.067,,,,,,,,,,,,,,,,,,,,,
,Co0.067 Cu0.067 Fe0.067 Nb1 Ni0.067,109,10.1557/jmr.2019.36,WROUGHT,FCC+Laves,,,,,,8.6,,C,25.0,1415.0,,12.6,,,,2019
Co0.086 Cu0.086 Fe0.086 Nb1 Ni0.086,,,,,,,,,,,,,,,,,,,,,
,Co0.086 Cu0.086 Fe0.086 Nb1 Ni0.086,109,10.1557/jmr.2019.36,WROUGHT,FCC+Laves,,,,,,8.6,,C,25.0,1703.0,,18.3,,,,2019
Co0.133 Cu0.133 Fe0.133 Nb1 Ni0.133,,,,,,,,,,,,,,,,,,,,,
,Co0.133 Cu0.133 Fe0.133 Nb1 Ni0.133,109,10.1557/jmr.2019.36,WROUGHT,FCC+Laves,,,,,,8.6,,C,25.0,1635.0,,31.7,,,,2019
Co0.139 Cr0.446 Cu0.99 Ni1 Si0.277,,,,,,,,,,,,,,,,,,,,,
,Co0.139 Cr0.446 Cu0.99 Ni1 Si0.277,261,10.1016/j.msea.2019.05.003,WROUGHT,,,,,,,7.6,142.5,T,25.0,777.0,810.0,3.4,,,,2019
,Co0.139 Cr0.446 Cu0.99 Ni1 Si0.277,261,10.1016/j.msea.2019.05.003,WROUGHT,,,,,,,7.6,147.4,,,,,,,,,2019
,Co0.139 Cr0.446 Cu0.99 Ni1 Si0.277,261,10.1016/j.msea.2019.05.003,WROUGHT,,,,,,,7.6,155.2,,,,,,,,,2019
Co0.2 Cr0.2 Fe1 Mn0.6,,,,,,,,,,,,,,,,,,,,,
,Co0.2 Cr0.2 Fe1 Mn0.6,174,10.1016/j.actamat.2017.03.069,ANNEAL,FCC+HCP,,,,45.0,,7.8,,T,25.0,250.0,730.0,50.0,,,,2017
,Co0.2 Cr0.2 Fe1 Mn0.6,174,10.1016/j.actamat.2017.03.069,WROUGHT,FCC+HCP,,,,4.5,,7.8,,T,25.0,330.0,870.0,75.0,,,,2017
,Co0.2 Cr0.2 Fe1 Mn0.6,174,10.1016/j.actamat.2017.03.069,WROUGHT,FCC+HCP,,,,6.0,,7.8,,T,25.0,280.0,800.0,65.0,,,,2017
,Co0.2 Cr0.2 Fe1 Mn0.6,174,10.1016/j.actamat.2017.03.069,WROUGHT,FCC+HCP,,,,15.0,,7.8,,T,25.0,350.0,830.0,63.0,,,,2017
,Co0.2 Cr0.2 Fe1 Mn0.6,176,10.1038/s41598-017-16509-9,WROUGHT,FCC+HCP,,,,6.5,,7.8,,T,25.0,298.0,1400.0,45.0,,,,2017
,Co0.2 Cr0.2 Fe1 Mn0.6,176,10.1038/s41598-017-16509-9,WROUGHT,FCC+HCP,,,,5.2,,7.8,,T,25.0,400.0,1200.0,42.0,,,,2017
,Co0.2 Cr0.2 Fe1 Mn0.6,110,10.1016/j.msea.2019.01.088,CAST,FCC+Sec.,,,,,,7.8,296.0,,,,,,,,,2019
Co0.2 Cu0.2 Fe0.2 Nb1 Ni0.2,,,,,,,,,,,,,,,,,,,,,
,Co0.2 Cu0.2 Fe0.2 Nb1 Ni0.2,109,10.1557/jmr.2019.36,WROUGHT,FCC+Laves,,,,,,8.6,,C,25.0,1498.0,,37.6,,,,2019
Co0.25 Cr0.25 Fe1 Mn1,,,,,,,,,,,,,,,,,,,,,
,Co0.25 Cr0.25 Fe1 Mn1,248,10.1016/j.msea.2019.138039,CAST,FCC,,,,,,7.7,,T,25.0,213.0,471.0,55.7,,,212.0,2019