Alloy composition,FORMULA,IDENTIFIER: Reference ID,REFERENCE: doi,PROPERTY: Processing method,PROPERTY: Microstructure,PROPERTY: O content (wppm),PROPERTY: N content (wppm),PROPERTY: C content (wppm),PROPERTY: grain size ($\mu$m),PROPERTY: Exp. Density (g/cm$^3$),PROPERTY: Calculated Density (g/cm$^3$),PROPERTY: HV,PROPERTY: Type of test,PROPERTY: Test temperature ($^\circ$C),PROPERTY: YS (MPa),PROPERTY: UTS (MPa),PROPERTY: Elongation (%),PROPERTY: Elongation plastic (%),PROPERTY: Exp. Young modulus (GPa),PROPERTY: Calculated Young modulus (GPa),REFERENCE: year
Ag1 Al1 Nb1 Ti1 Zn1,,,,,,,,,,,,,,,,,,,,,
,Ag1 Al1 Nb1 Ti1 Zn1,120,10.1016/j.msea.2018.12.020,ANNEAL,,,,,,4.75,6.7,,,,,,,,,,2019
,Ag1 Al1 Nb1 Ti1 Zn1,120,10.1016/j.msea.2018.12.020,ANNEAL,,,,,,5.78,6.7,,,,,,,,,,2019
,Ag1 Al1 Nb1 Ti1 Zn1,120,10.1016/j.msea.2018.12.020,ANNEAL,,,,,,5.79,6.7,,,,,,,,,,2019
,Ag1 Al1 Nb1 Ti1 Zn1,120,10.1016/j.msea.2018.12.020,ANNEAL,,,,,,5.51,6.7,,,,,,,,,,2019
,Ag1 Al1 Nb1 Ti1 Zn1,120,10.1016/j.msea.2018.12.020,ANNEAL,,,,,,,6.7,,,,,,,,,,2019
Al0.05 Cr0.5 Fe1 Mn0.625 Ni0.375,,,,,,,,,,,,,,,,,,,,,
,Al0.05 Cr0.5 Fe1 Mn0.625 Ni0.375,151,10.1016/j.jallcom.2018.08.093,CAST,FCC+BCC,,,,,,7.6,,C,25.0,354.0,,,,,,2019
,Al0.05 Cr0.5 Fe1 Mn0.625 Ni0.375,151,10.1016/j.jallcom.2018.08.093,CAST,FCC+BCC,,,,,,7.6,,C,400.0,260.0,,,,,,2019
,Al0.05 Cr0.5 Fe1 Mn0.625 Ni0.375,151,10.1016/j.jallcom.2018.08.093,CAST,FCC+BCC,,,,,,7.6,,C,600.0,155.0,,,,,,2019
Al0.053 Cu1 Mn1 Ni1,,,,,,,,,,,,,,,,,,,,,
,Al0.053 Cu1 Mn1 Ni1,62,10.1016/j.jallcom.2015.07.285,CAST,FCC,,,,,,8.3,166.0,C,25.0,330.0,,45.0,,,173.0,2015
Al0.1 Co1 Cr1 Fe1 Mn1 Ni1,,,,,,,,,,,,,,,,,,,,,
,Al0.1 Co1 Cr1 Fe1 Mn1 Ni1,16,10.1016/j.actamat.2013.09.037,CAST,FCC,,,,,,7.9,180.0,,25.0,,,,,,216.0,2014
,Al0.1 Co1 Cr1 Fe1 Mn1 Ni1,136,10.1016/j.jallcom.2018.10.168,CAST,FCC+BCC,,,,,,7.9,432.0,C,25.0,1631.0,,,12.6,,,2019
Al0.1 Co1 Cr1 Fe1 Ni1,,,,,,,,,,,,,,,,,,,,,
,Al0.1 Co1 Cr1 Fe1 Ni1,222,10.1016/j.actamat.2018.12.012,WROUGHT,FCC,,,,20.0,,8.0,,T,25.0,1198.0,,1.5,,,220.0,2019
,Al0.1 Co1 Cr1 Fe1 Ni1,222,10.1016/j.actamat.2018.12.012,WROUGHT,FCC,,,,20.0,,8.0,,T,25.0,1403.0,,1.2,,,220.0,2019
,Al0.1 Co1 Cr1 Fe1 Ni1,222,10.1016/j.actamat.2018.12.012,WROUGHT,FCC,,,,20.0,,8.0,,T,25.0,711.0,928.0,30.3,,,220.0,2019
,Al0.1 Co1 Cr1 Fe1 Ni1,222,10.1016/j.actamat.2018.12.012,WROUGHT,FCC,,,,7.0,,8.0,,T,25.0,356.0,,42.4,,,220.0,2019
Al0.1 Cr0.5 Cu0.5 Fe0.5 Ni1,,,,,,,,,,,,,,,,,,,,,
,Al0.1 Cr0.5 Cu0.5 Fe0.5 Ni1,33,10.1063/1.3587228,,FCC,,,,,,8.0,,,25.0,,,,,,197.0,2011
Al0.108 Co0.514 Cr0.514 Cu0.108 Fe0.514 Ni1,,,,,,,,,,,,,,,,,,,,,
,Al0.108 Co0.514 Cr0.514 Cu0.108 Fe0.514 Ni1,194,10.1016/j.msea.2017.04.111,WROUGHT,FCC,,,,,,8.0,,T,25.0,719.0,1048.0,30.0,,,209.0,2017
,Al0.108 Co0.514 Cr0.514 Cu0.108 Fe0.514 Ni1,194,10.1016/j.msea.2017.04.111,WROUGHT,FCC+L12,,,,,,8.0,,T,25.0,460.0,732.0,32.0,,,,2017
Al0.111 Cu1 Mn1 Ni1,,,,,,,,,,,,,,,,,,,,,
,Al0.111 Cu1 Mn1 Ni1,62,10.1016/j.jallcom.2015.07.285,CAST,FCC+Sec.,,,,,,8.1,241.0,C,25.0,515.0,,40.0,,,,2015
Al0.125 Co1 Cr1 Cu1 Fe1 Mn1 Ni1 Ti1 V1,,,,,,,,,,,,,,,,,,,,,
,Al0.125 Co1 Cr1 Cu1 Fe1 Mn1 Ni1 Ti1 V1,61,10.1016/j.msea.2006.11.049,CAST,FCC+BCC,,,,,,7.2,,C,25.0,1862.0,2431.0,1.0,,164.0,,2007
Al0.133 Co1 Cr0.667 Fe0.667 Ni1 Ti0.333,,,,,,,,,,,,,,,,,,,,,
,Al0.133 Co1 Cr0.667 Fe0.667 Ni1 Ti0.333,1,10.1016/j.actamat.2011.06.041,ANNEAL,FCC,,,,,,7.6,487.0,,25.0,,,,,,201.0,2011
Al0.133 Co1 Cr0.667 Fe0.667 Ni1 Ti0.667,,,,,,,,,,,,,,,,,,,,,
,Al0.133 Co1 Cr0.667 Fe0.667 Ni1 Ti0.667,1,10.1016/j.actamat.2011.06.041,ANNEAL,FCC+Sec.,,,,,,7.2,717.0,,25.0,,,,,,,2011
Al0.143 Cr0.343 Fe1 Mn0.8 Ni0.571,,,,,,,,,,,,,,,,,,,,,
,Al0.143 Cr0.343 Fe1 Mn0.8 Ni0.571,254,10.1016/j.msea.2019.05.056,CAST,FCC,,,,,,7.5,,T,25.0,280.0,556.0,48.0,48.2,,204.0,2019
,Al0.143 Cr0.343 Fe1 Mn0.8 Ni0.571,254,10.1016/j.msea.2019.05.056,CAST,FCC,,,,,,7.5,,T,25.0,1253.0,1392.0,6.78,8.2,,204.0,2019
Al0.15 Cr0.5 Cu0.25 Fe0.5 Ni1,,,,,,,,,,,,,,,,,,,,,
,Al0.15 Cr0.5 Cu0.25 Fe0.5 Ni1,234,10.1016/j.matchar.2019.109792,WROUGHT,FCC,,,,,,7.8,107.0,T,25.0,62.0,169.0,98.0,,16.6,200.0,2019
,Al0.15 Cr0.5 Cu0.25 Fe0.5 Ni1,234,10.1016/j.matchar.2019.109792,WROUGHT,FCC+L12,,,,,,7.8,209.0,T,25.0,350.0,642.0,73.0,,47.0,,2019
,Al0.15 Cr0.5 Cu0.25 Fe0.5 Ni1,234,10.1016/j.matchar.2019.109792,WROUGHT,FCC+L12+Sec.,,,,,,7.8,321.0,T,25.0,535.0,904.0,39.0,,35.2,,2019
,Al0.15 Cr0.5 Cu0.25 Fe0.5 Ni1,234,10.1016/j.matchar.2019.109792,WROUGHT,FCC+L12+Sec.,,,,,,7.8,159.0,T,25.0,255.0,584.0,88.0,,51.4,,2019
Al0.15 Cr0.5 Fe1 Mn0.625 Ni0.375,,,,,,,,,,,,,,,,,,,,,
,Al0.15 Cr0.5 Fe1 Mn0.625 Ni0.375,151,10.1016/j.jallcom.2018.08.093,CAST,FCC+BCC,,,,,,7.4,,C,25.0,550.0,,,,,,2019
,Al0.15 Cr0.5 Fe1 Mn0.625 Ni0.375,151,10.1016/j.jallcom.2018.08.093,CAST,FCC+BCC,,,,,,7.4,,C,400.0,469.0,,,,,,2019
,Al0.15 Cr0.5 Fe1 Mn0.625 Ni0.375,151,10.1016/j.jallcom.2018.08.093,CAST,FCC+BCC,,,,,,7.4,,C,600.0,272.0,,,,,,2019
Al0.167 Co1 Cr1 Fe1 Ni1 Ti0.083,,,,,,,,,,,,,,,,,,,,,
,Al0.167 Co1 Cr1 Fe1 Ni1 Ti0.083,196,10.1016/j.actamat.2015.08.076,ANNEAL,FCC,,,,289.7,,7.8,,T,25.0,210.0,503.0,70.0,,,214.0,2016
,Al0.167 Co1 Cr1 Fe1 Ni1 Ti0.083,196,10.1016/j.actamat.2015.08.076,WROUGHT,FCC+L12+Sec.,,,,15.7,,7.8,,T,25.0,645.0,1094.0,39.0,,,,2016
,Al0.167 Co1 Cr1 Fe1 Ni1 Ti0.083,196,10.1016/j.actamat.2015.08.076,WROUGHT,FCC+L12+Sec.,,,,2.8,,7.8,,T,25.0,1005.0,1273.0,17.0,,,,2016
Al0.186 Cr0.149 Fe1 Mn0.861 Ni0.28,,,,,,,,,,,,,,,,,,,,,
,Al0.186 Cr0.149 Fe1 Mn0.861 Ni0.28,111,10.1016/j.msea.2019.01.083,CAST,,,,,,,7.3,,T,25.0,159.0,535.0,,40.8,,,2019
,Al0.186 Cr0.149 Fe1 Mn0.861 Ni0.28,111,10.1016/j.msea.2019.01.083,ANNEAL,,,,,,,7.3,,T,25.0,409.0,584.0,,10.5,,,2019
,Al0.186 Cr0.149 Fe1 Mn0.861 Ni0.28,111,10.1016/j.msea.2019.01.083,CAST,,,,,,,7.3,,T,25.0,355.0,1174.0,,49.5,,,2019
,Al0.186 Cr0.149 Fe1 Mn0.861 Ni0.28,111,10.1016/j.msea.2019.01.083,ANNEAL,,,,,,,7.3,,T,25.0,954.0,978.0,,2.0,,,2019
Al0.2 Co1 Cr1 Fe1 Mn1 Ni1,,,,,,,,,,,,,,,,,,,,,
,Al0.2 Co1 Cr1 Fe1 Mn1 Ni1,16,10.1016/j.actamat.2013.09.037,CAST,FCC,,,,,,7.7,171.0,T,25.0,220.0,,56.0,,,212.0,2014
Al0.2 Cr0.5 Cu0.5 Fe0.5 Ni1,,,,,,,,,,,,,,,,,,,,,
,Al0.2 Cr0.5 Cu0.5 Fe0.5 Ni1,33,10.1063/1.3587228,,FCC,,,,,,7.8,,,25.0,,,,,,190.0,2011
Al0.2 Cr0.667 Fe1 Mn0.667 Ni0.333,,,,,,,,,,,,,,,,,,,,,
,Al0.2 Cr0.667 Fe1 Mn0.667 Ni0.333,18,10.1016/j.msea.2010.05.052,CAST,FCC+BCC,,,,,,7.2,297.0,,25.0,,,,,,,2010
Al0.2 Mo1 Ta1 Ti1 V1,,,,,,,,,,,,,,,,,,,,,
,Al0.2 Mo1 Ta1 Ti1 V1,86,10.4028/www.scientific.net/MSF.898.638,CAST,BCC,,,,,,9.3,,C,25.0,1021.0,1249.0,,,,183.0,2017
Al0.214 Nb0.714 Ta0.571 Ti1 V0.143 Zr0.929,,,,,,,,,,,,,,,,,,,,,
,Al0.214 Nb0.714 Ta0.571 Ti1 V0.143 Zr0.929,39,10.1007/s11837-014-1066-0,OTHER,BCC,,,,180.0,,7.7,500.0,C,25.0,1965.0,2061.0,5.0,,,107.0,2014
,Al0.214 Nb0.714 Ta0.571 Ti1 V0.143 Zr0.929,39,10.1007/s11837-014-1066-0,OTHER,BCC,,,,,,7.7,,C,800.0,678.0,693.0,50.0,,,107.0,2014
,Al0.214 Nb0.714 Ta0.571 Ti1 V0.143 Zr0.929,39,10.1007/s11837-014-1066-0,OTHER,BCC,,,,,,7.7,,C,1000.0,166.0,189.0,50.0,,,107.0,2014
Al0.214 Nb0.714 Ta0.714 Ti1 Zr0.929,,,,,,,,,,,,,,,,,,,,,
,Al0.214 Nb0.714 Ta0.714 Ti1 Zr0.929,39,10.1007/s11837-014-1066-0,OTHER,BCC,,,,200.0,,8.1,490.0,C,25.0,1965.0,2054.0,5.0,,,110.0,2014
,Al0.214 Nb0.714 Ta0.714 Ti1 Zr0.929,39,10.1007/s11837-014-1066-0,OTHER,BCC,,,,,,8.1,,C,800.0,362.0,397.0,50.0,,,110.0,2014
,Al0.214 Nb0.714 Ta0.714 Ti1 Zr0.929,39,10.1007/s11837-014-1066-0,OTHER,BCC,,,,,,8.1,,C,1000.0,236.0,247.0,50.0,,,110.0,2014
Al0.229 Co0.486 Cr0.4 Cu0.229 Fe0.486 Mo0.003 Ni1 Ti0.029 W0.003,,,,,,,,,,,,,,,,,,,,,
,Al0.229 Co0.486 Cr0.4 Cu0.229 Fe0.486 Mo0.003 Ni1 Ti0.029 W0.003,201,10.1016/j.ultramic.2015.06.009,CAST,,,,,,,7.7,231.0,,,,,,,,,2015
,Al0.229 Co0.486 Cr0.4 Cu0.229 Fe0.486 Mo0.003 Ni1 Ti0.029 W0.003,201,10.1016/j.ultramic.2015.06.009,ANNEAL,,,,,,,7.7,178.0,,,,,,,,,2015
,Al0.229 Co0.486 Cr0.4 Cu0.229 Fe0.486 Mo0.003 Ni1 Ti0.029 W0.003,201,10.1016/j.ultramic.2015.06.009,ANNEAL,,,,,,,7.7,343.0,,,,,,,,,2015
,Al0.229 Co0.486 Cr0.4 Cu0.229 Fe0.486 Mo0.003 Ni1 Ti0.029 W0.003,167,10.1016/j.matchar.2018.06.036,ANNEAL,,,,,,,7.7,171.0,,,,,,,,,2019
Al0.24 Nb1 Ti1 V1 Zr1,,,,,,,,,,,,,,,,,,,,,
,Al0.24 Nb1 Ti1 V1 Zr1,165,10.1016/j.actamat.2019.06.032,OTHER,BCC+Laves,,,,,6.34,6.3,,C,23.0,1240.0,,,,,,2019
,Al0.24 Nb1 Ti1 V1 Zr1,165,10.1016/j.actamat.2019.06.032,OTHER,BCC+Laves,,,,,6.34,6.3,,C,1000.0,82.0,,,,,,2019
,Al0.24 Nb1 Ti1 V1 Zr1,165,10.1016/j.actamat.2019.06.032,OTHER,BCC+Laves,,,,,6.34,6.3,,C,1200.0,24.0,,,,,,2019
Al0.242 Co0.515 Cr0.515 Cu0.242 Fe0.515 Ni1,,,,,,,,,,,,,,,,,,,,,
,Al0.242 Co0.515 Cr0.515 Cu0.242 Fe0.515 Ni1,201,10.1016/j.ultramic.2015.06.009,ANNEAL,,,,,,,7.7,168.0,,,,,,,,,2015
,Al0.242 Co0.515 Cr0.515 Cu0.242 Fe0.515 Ni1,201,10.1016/j.ultramic.2015.06.009,ANNEAL,,,,,,,7.7,328.0,,,,,,,,,2015
,Al0.242 Co0.515 Cr0.515 Cu0.242 Fe0.515 Ni1,167,10.1016/j.matchar.2018.06.036,ANNEAL,,,,,,,7.7,206.0,,,,,,,,,2019
,Al0.242 Co0.515 Cr0.515 Cu0.242 Fe0.515 Ni1,200,10.1007/s11837-013-0756-3,CAST,Other,,,,,,7.7,,T,25.0,357.0,459.0,9.0,,,,2013
,Al0.242 Co0.515 Cr0.515 Cu0.242 Fe0.515 Ni1,200,10.1007/s11837-013-0756-3,ANNEAL,Other,,,,,,7.7,,T,25.0,365.0,365.0,0.1,,,,2013
,Al0.242 Co0.515 Cr0.515 Cu0.242 Fe0.515 Ni1,200,10.1007/s11837-013-0756-3,ANNEAL,FCC+L12,,,,,,7.7,,T,25.0,215.0,489.0,39.0,,,,2013
Al0.25 Co0.5 Cr0.5 Cu0.5 Fe0.5 Ni0.5 Ti1,,,,,,,,,,,,,,,,,,,,,
,Al0.25 Co0.5 Cr0.5 Cu0.5 Fe0.5 Ni0.5 Ti1,24,10.2320/matertrans.47.1395,CAST,FCC+BCC+B2+Sec.,,,,,,6.5,696.0,,25.0,,,,,,,2006
Al0.25 Co0.5 Cr0.5 Cu0.5 Fe0.5 Ni0.5 V1,,,,,,,,,,,,,,,,,,,,,
,Al0.25 Co0.5 Cr0.5 Cu0.5 Fe0.5 Ni0.5 V1,25,10.1007/s11661-006-0081-3,CAST,BCC,,,,,,7.2,587.0,,25.0,,,,,,171.0,2006
Al0.25 Co1 Cr1 Cu0.5 Fe1 Ni1 Ti0.5,,,,,,,,,,,,,,,,,,,,,
,Al0.25 Co1 Cr1 Cu0.5 Fe1 Ni1 Ti0.5,13,10.1016/j.jallcom.2008.11.059,CAST,FCC,,,,,,7.4,,,25.0,,,,,,192.0,2009
Al0.25 Co1 Cr1 Cu0.75 Fe1 Ni1 Ti0.5,,,,,,,,,,,,,,,,,,,,,
,Al0.25 Co1 Cr1 Cu0.75 Fe1 Ni1 Ti0.5,13,10.1016/j.jallcom.2008.11.059,CAST,FCC,,,,,,7.5,,C,25.0,750.0,1970.0,,39.0,103.0,189.0,2009
Al0.25 Co1 Cr1 Cu1 Fe1 Mn1 Ni1 Ti1 V1,,,,,,,,,,,,,,,,,,,,,
,Al0.25 Co1 Cr1 Cu1 Fe1 Mn1 Ni1 Ti1 V1,61,10.1016/j.msea.2006.11.049,CAST,BCC,,,,,,7.1,,C,25.0,1465.0,2016.0,2.0,,190.0,174.0,2007
Al0.25 Co1 Cr1 Fe1 Ni1,,,,,,,,,,,,,,,,,,,,,
,Al0.25 Co1 Cr1 Fe1 Ni1,54,10.1016/j.jallcom.2009.08.090,ANNEAL,FCC,,,,,,7.7,110.0,,25.0,,,,,,213.0,2009
,Al0.25 Co1 Cr1 Fe1 Ni1,54,10.1016/j.jallcom.2009.08.090,ANNEAL,FCC,,,,,,7.7,113.0,,25.0,,,,,,213.0,2009
Al0.25 Co1 Fe1 Ni1,,,,,,,,,,,,,,,,,,,,,
,Al0.25 Co1 Fe1 Ni1,27,10.1016/j.jmmm.2014.07.023,CAST,FCC,,,,,,7.9,138.0,C,25.0,158.0,,,,,192.0,2014
Al0.25 Cr0.417 Fe0.417 Ni1,,,,,,,,,,,,,,,,,,,,,
,Al0.25 Cr0.417 Fe0.417 Ni1,245,10.1016/j.jallcom.2018.08.176,CAST,FCC,,,,,,7.3,,T,25.0,441.0,757.0,45.0,,,196.0,2019
Al0.25 Cr0.5 Fe1 Mn0.625 Ni0.375,,,,,,,,,,,,,,,,,,,,,
,Al0.25 Cr0.5 Fe1 Mn0.625 Ni0.375,151,10.1016/j.jallcom.2018.08.093,CAST,B2+BCC,,,,175.0,,7.2,,C,25.0,994.0,,,,,,2019
,Al0.25 Cr0.5 Fe1 Mn0.625 Ni0.375,151,10.1016/j.jallcom.2018.08.093,CAST,B2+BCC,,,,,,7.2,,C,400.0,943.0,,,,,,2019
,Al0.25 Cr0.5 Fe1 Mn0.625 Ni0.375,151,10.1016/j.jallcom.2018.08.093,CAST,B2+BCC,,,,,,7.2,,C,600.0,359.0,,,,,,2019
Al0.25 Cr0.5 Nb0.5 Ti1 V0.25,,,,,,,,,,,,,,,,,,,,,
,Al0.25 Cr0.5 Nb0.5 Ti1 V0.25,96,10.1016/j.matlet.2016.11.030,ANNEAL,BCC+Laves,,,,,,5.8,,C,600.0,930.0,,,,,,2017
,Al0.25 Cr0.5 Nb0.5 Ti1 V0.25,96,10.1016/j.matlet.2016.11.030,ANNEAL,BCC+Laves,,,,,,5.8,,C,800.0,445.0,,,,,,2017
,Al0.25 Cr0.5 Nb0.5 Ti1 V0.25,96,10.1016/j.matlet.2016.11.030,ANNEAL,BCC+Laves,,,,,,5.8,,C,1000.0,90.0,,,,,,2017
,Al0.25 Cr0.5 Nb0.5 Ti1 V0.25,96,10.1016/j.matlet.2016.11.030,ANNEAL,BCC+Laves,,,,,,5.8,,C,25.0,1340.0,1700.0,,,,,2017
,Al0.25 Cr0.5 Nb0.5 Ti1 V0.25,96,10.1016/j.matlet.2016.11.030,CAST,BCC,,,,,,5.8,,C,25.0,1240.0,,,,,134.0,2017
Al0.25 Mo1 Nb1 Ti1 V1,,,,,,,,,,,,,,,,,,,,,
,Al0.25 Mo1 Nb1 Ti1 V1,41,10.3390/e16020870,CAST,BCC,,,,,,7.1,460.0,C,25.0,1250.0,1500.0,13.0,,,161.0,2014
Al0.25 Nb1 Ta1 Ti1 V1,,,,,,,,,,,,,,,,,,,,,
,Al0.25 Nb1 Ta1 Ti1 V1,42,10.1016/j.proeng.2012.03.043,CAST,BCC,,,,,,8.8,,C,25.0,1330.0,,,,,130.0,2012
Al0.25 Nb1 Ta1 Ti1 Zr1,,,,,,,,,,,,,,,,,,,,,
,Al0.25 Nb1 Ta1 Ti1 Zr1,77,10.1016/j.matdes.2017.11.033,OTHER,BCC+B2,,,,,,8.6,,C,1000.0,366.0,408.0,,,,,2018
,Al0.25 Nb1 Ta1 Ti1 Zr1,77,10.1016/j.matdes.2017.11.033,OTHER,BCC+B2,,,,,,8.6,,C,25.0,1745.0,1830.0,,,,,2018
Al0.267 Co1 Cr0.667 Fe0.667 Ni0.667 Ti0.2,,,,,,,,,,,,,,,,,,,,,
,Al0.267 Co1 Cr0.667 Fe0.667 Ni0.667 Ti0.2,129,10.5755/j01.ms.25.3.19452,POWDER,FCC+BCC,,,,,,7.3,515.0,C,25.0,2012.0,,,17.52,,,2019
Al0.278 Co0.556 Cr0.556 Cu0.556 Fe0.556 Ni0.556 Ti1,,,,,,,,,,,,,,,,,,,,,
,Al0.278 Co0.556 Cr0.556 Cu0.556 Fe0.556 Ni0.556 Ti1,24,10.2320/matertrans.47.1395,CAST,FCC+BCC+B2+Sec.,,,,,,6.6,667.0,,25.0,,,,,,,2006
Al0.278 Co0.556 Cr0.556 Cu0.556 Fe0.556 Ni0.556 V1,,,,,,,,,,,,,,,,,,,,,
,Al0.278 Co0.556 Cr0.556 Cu0.556 Fe0.556 Ni0.556 V1,25,10.1007/s11661-006-0081-3,CAST,BCC,,,,,,7.2,597.0,,25.0,,,,,,172.0,2006
Al0.278 Co0.694 Cr0.222 Fe0.417 Ni1 Ti0.167,,,,,,,,,,,,,,,,,,,,,
,Al0.278 Co0.694 Cr0.222 Fe0.417 Ni1 Ti0.167,175,10.1007/s11837-015-1484-7,CAST,,,,,,,7.4,343.0,,,,,,,,,2015
,Al0.278 Co0.694 Cr0.222 Fe0.417 Ni1 Ti0.167,175,10.1007/s11837-015-1484-7,ANNEAL,,,,,,,7.4,341.0,,,,,,,,,2015
,Al0.278 Co0.694 Cr0.222 Fe0.417 Ni1 Ti0.167,175,10.1007/s11837-015-1484-7,ANNEAL,FCC+L12+Sec.,,,,,,7.4,345.0,T,25.0,568.0,786.0,12.0,,,,2015
,Al0.278 Co0.694 Cr0.222 Fe0.417 Ni1 Ti0.167,175,10.1007/s11837-015-1484-7,ANNEAL,FCC+L12+Sec.,,,,,,7.4,345.0,T,25.0,596.0,1039.0,20.0,,,,2015
,Al0.278 Co0.694 Cr0.222 Fe0.417 Ni1 Ti0.167,175,10.1007/s11837-015-1484-7,ANNEAL,FCC+L12+Sec.,,,,,,7.4,345.0,T,700.0,487.0,702.0,18.0,,,,2015
,Al0.278 Co0.694 Cr0.222 Fe0.417 Ni1 Ti0.167,175,10.1007/s11837-015-1484-7,ANNEAL,FCC+L12+Sec.,,,,,,7.4,345.0,T,700.0,486.0,624.0,11.0,,,,2015
,Al0.278 Co0.694 Cr0.222 Fe0.417 Ni1 Ti0.167,220,10.3390/e21020169,ANNEAL,FCC,,,,,,7.4,,T,23.0,520.0,696.0,49.0,,,185.0,2019
,Al0.278 Co0.694 Cr0.222 Fe0.417 Ni1 Ti0.167,220,10.3390/e21020169,ANNEAL,FCC,,,,,,7.4,,T,600.0,470.0,561.0,11.0,,,185.0,2019
,Al0.278 Co0.694 Cr0.222 Fe0.417 Ni1 Ti0.167,220,10.3390/e21020169,ANNEAL,FCC,,,,,,7.4,,T,700.0,461.0,560.0,9.0,,,185.0,2019
,Al0.278 Co0.694 Cr0.222 Fe0.417 Ni1 Ti0.167,220,10.3390/e21020169,ANNEAL,FCC,,,,,,7.4,,T,800.0,445.0,536.0,6.0,,,185.0,2019
,Al0.278 Co0.694 Cr0.222 Fe0.417 Ni1 Ti0.167,220,10.3390/e21020169,ANNEAL,FCC,,,,,,7.4,,T,900.0,219.0,312.0,8.0,,,185.0,2019
,Al0.278 Co0.694 Cr0.222 Fe0.417 Ni1 Ti0.167,220,10.3390/e21020169,ANNEAL,FCC,,,,,,7.4,,T,23.0,627.0,1197.0,27.0,,,185.0,2019
,Al0.278 Co0.694 Cr0.222 Fe0.417 Ni1 Ti0.167,220,10.3390/e21020169,ANNEAL,FCC,,,,,,7.4,,T,600.0,594.0,1006.0,12.0,,,185.0,2019
,Al0.278 Co0.694 Cr0.222 Fe0.417 Ni1 Ti0.167,220,10.3390/e21020169,ANNEAL,FCC,,,,,,7.4,,T,700.0,547.0,840.0,17.0,,,185.0,2019
,Al0.278 Co0.694 Cr0.222 Fe0.417 Ni1 Ti0.167,220,10.3390/e21020169,ANNEAL,FCC,,,,,,7.4,,T,800.0,399.0,575.0,20.0,,,185.0,2019
,Al0.278 Co0.694 Cr0.222 Fe0.417 Ni1 Ti0.167,220,10.3390/e21020169,ANNEAL,FCC,,,,,,7.4,,T,900.0,243.0,319.0,34.0,,,185.0,2019
Al0.286 Cr0.343 Fe1 Mn0.657 Ni0.571,,,,,,,,,,,,,,,,,,,,,
,Al0.286 Cr0.343 Fe1 Mn0.657 Ni0.571,254,10.1016/j.msea.2019.05.056,WROUGHT,FCC,,,,,,7.2,,T,25.0,320.0,625.0,42.2,42.45,,195.0,2019
,Al0.286 Cr0.343 Fe1 Mn0.657 Ni0.571,254,10.1016/j.msea.2019.05.056,WROUGHT,FCC,,,,,,7.2,,T,25.0,1400.0,1500.0,5.83,7.85,,195.0,2019
Al0.3 Co1 Cr1 Cu1 Fe1,,,,,,,,,,,,,,,,,,,,,
,Al0.3 Co1 Cr1 Cu1 Fe1,20,10.3166/acsm.31.633-648,,FCC,,,,,,7.7,180.0,,25.0,,,,,,194.0,2006
Al0.3 Co1 Cr1 Fe1 Mn1 Ni1,,,,,,,,,,,,,,,,,,,,,
,Al0.3 Co1 Cr1 Fe1 Mn1 Ni1,136,10.1016/j.jallcom.2018.10.168,CAST,FCC+BCC,,,,0.2,,7.6,511.0,C,25.0,1836.0,,,4.9,,,2019
,Al0.3 Co1 Cr1 Fe1 Mn1 Ni1,106,10.1016/j.scriptamat.2018.12.021,POWDER,,,,,,,7.6,,,,,,,,,,2019
Al0.3 Co1 Cr1 Fe1 Mo0.1 Ni1,,,,,,,,,,,,,,,,,,,,,
,Al0.3 Co1 Cr1 Fe1 Mo0.1 Ni1,258,10.1016/j.jallcom.2010.02.032,,FCC,,,,,,7.7,200.0,,,,,,,,214.0,2010
Al0.3 Co1 Cr1 Fe1 Ni1,,,,,,,,,,,,,,,,,,,,,
,Al0.3 Co1 Cr1 Fe1 Ni1,140,10.1016/j.scriptamat.2018.08.048,WROUGHT,FCC+B2+Sec.,,,,0.71,,7.6,,T,25.0,900.0,1074.0,25.0,,,,2019
,Al0.3 Co1 Cr1 Fe1 Ni1,138,10.1016/j.matdes.2019.107698,CAST,FCC,,,,,,7.6,117.0,,,,,,,,210.0,2019
,Al0.3 Co1 Cr1 Fe1 Ni1,141,10.1016/j.scriptamat.2018.10.023,WROUGHT,FCC+L12,,,,,,7.6,,T,25.0,143.0,400.0,65.0,,,,2019
,Al0.3 Co1 Cr1 Fe1 Ni1,141,10.1016/j.scriptamat.2018.10.023,WROUGHT,FCC+L12,,,,,,7.6,,T,25.0,471.0,850.0,45.0,,,,2019
,Al0.3 Co1 Cr1 Fe1 Ni1,141,10.1016/j.scriptamat.2018.10.023,WROUGHT,FCC+B2+Sec.,,,,,,7.6,,T,25.0,841.0,1050.0,35.0,,,,2019
,Al0.3 Co1 Cr1 Fe1 Ni1,141,10.1016/j.scriptamat.2018.10.023,WROUGHT,FCC+BCC+B2+Sec.,,,,,,7.6,,T,25.0,161.0,1650.0,7.0,,,,2019
,Al0.3 Co1 Cr1 Fe1 Ni1,141,10.1016/j.scriptamat.2018.10.023,WROUGHT,FCC+BCC+B2+Sec.,,,,,,7.6,,T,25.0,187.0,1850.0,5.0,,,,2019
,Al0.3 Co1 Cr1 Fe1 Ni1,152,10.1016/j.actamat.2018.12.010,WROUGHT,FCC+B2+Sec.,,,,,,7.6,,T,25.0,840.0,1039.0,32.0,,,,2019
,Al0.3 Co1 Cr1 Fe1 Ni1,152,10.1016/j.actamat.2018.12.010,WROUGHT,FCC,,,,,,7.6,,T,25.0,159.0,410.0,65.0,,,210.0,2019
,Al0.3 Co1 Cr1 Fe1 Ni1,213,10.1088/2053-1591/ab0597,CAST,FCC,,,,,,7.6,132.0,C,300.0,,,,,,210.0,2019
,Al0.3 Co1 Cr1 Fe1 Ni1,213,10.1088/2053-1591/ab0597,CAST,FCC,,,,,,7.6,147.0,C,340.0,,,,,,210.0,2019
,Al0.3 Co1 Cr1 Fe1 Ni1,213,10.1088/2053-1591/ab0597,CAST,FCC,,,,,,7.6,165.0,C,430.0,,,,,,210.0,2019
,Al0.3 Co1 Cr1 Fe1 Ni1,258,10.1016/j.jallcom.2010.02.032,,FCC,,,,,,7.6,160.0,,,,,,,,210.0,2010
Al0.3 Cr0.5 Cu0.5 Fe0.5 Ni1,,,,,,,,,,,,,,,,,,,,,
,Al0.3 Cr0.5 Cu0.5 Fe0.5 Ni1,33,10.1063/1.3587228,,FCC,,,,,,7.5,,,25.0,,,,,,185.0,2011
Al0.3 Hf1 Nb1 Ta1 Ti1 Zr1,,,,,,,,,,,,,,,,,,,,,
,Al0.3 Hf1 Nb1 Ta1 Ti1 Zr1,40,10.1016/j.jallcom.2014.11.064,CAST,BCC,,,,105.0,,9.5,353.0,C,25.0,1188.0,,50.0,,63.0,105.0,2015
Al0.304 Co1 Cr1 Fe1 Ni1,,,,,,,,,,,,,,,,,,,,,
,Al0.304 Co1 Cr1 Fe1 Ni1,183,10.1016/j.matlet.2017.04.072,,FCC+B2,,,,0.7,,7.6,,T,25.0,860.0,1050.0,48.0,,,,2017
,Al0.304 Co1 Cr1 Fe1 Ni1,183,10.1016/j.matlet.2017.04.072,,FCC+B2,,,,2.7,,7.6,,T,25.0,690.0,930.0,51.0,,,,2017
,Al0.304 Co1 Cr1 Fe1 Ni1,183,10.1016/j.matlet.2017.04.072,,FCC+B2,,,,3.8,,7.6,,T,25.0,550.0,800.0,64.0,,,,2017
,Al0.304 Co1 Cr1 Fe1 Ni1,183,10.1016/j.matlet.2017.04.072,,FCC,,,,53.0,,7.6,,T,25.0,260.0,620.0,87.0,,,210.0,2017
,Al0.304 Co1 Cr1 Fe1 Ni1,183,10.1016/j.matlet.2017.04.072,WROUGHT,FCC+BCC,,,,,,7.6,,,,,,,,,,2017
,Al0.304 Co1 Cr1 Fe1 Ni1,179,10.1016/j.scriptamat.2016.06.019,WROUGHT,FCC,,,,,,7.6,,,,,,,,,210.0,2016
,Al0.304 Co1 Cr1 Fe1 Ni1,179,10.1016/j.scriptamat.2016.06.019,WROUGHT,FCC+L12,,,,,,7.6,,,,,,,,,,2016
,Al0.304 Co1 Cr1 Fe1 Ni1,178,10.1016/j.matdes.2017.02.072,WROUGHT,FCC,,,,144.0,,7.6,,T,25.0,159.0,410.0,65.0,,,210.0,2017
,Al0.304 Co1 Cr1 Fe1 Ni1,178,10.1016/j.matdes.2017.02.072,WROUGHT,FCC+B2,,,,144.0,,7.6,,T,25.0,215.0,520.0,43.0,,,,2017
,Al0.304 Co1 Cr1 Fe1 Ni1,178,10.1016/j.matdes.2017.02.072,WROUGHT,FCC+L12,,,,144.0,,7.6,,T,25.0,285.0,540.0,55.0,,,,2017
,Al0.304 Co1 Cr1 Fe1 Ni1,178,10.1016/j.matdes.2017.02.072,WROUGHT,FCC,,,,23.0,,7.6,,T,25.0,263.0,589.0,60.0,,,210.0,2017
,Al0.304 Co1 Cr1 Fe1 Ni1,178,10.1016/j.matdes.2017.02.072,WROUGHT,FCC+L12+B2,,,,23.0,,7.6,,T,25.0,490.0,840.0,45.0,,,,2017
,Al0.304 Co1 Cr1 Fe1 Ni1,184,10.1016/j.actamat.2017.03.066,ANNEAL,FCC+BCC,,,,,,7.6,,,,,,,,,,2017
,Al0.304 Co1 Cr1 Fe1 Ni1,185,10.1016/j.jallcom.2008.12.088,CAST,FCC+L12,,,,,,7.6,,T,25.0,175.0,335.0,58.0,,,,2009
,Al0.304 Co1 Cr1 Fe1 Ni1,185,10.1016/j.jallcom.2008.12.088,ANNEAL,FCC+L12,,,,,,7.6,,T,25.0,305.0,525.0,44.0,,,,2009
,Al0.304 Co1 Cr1 Fe1 Ni1,185,10.1016/j.jallcom.2008.12.088,ANNEAL,FCC+B2,,,,,,7.6,,T,25.0,280.0,570.0,44.0,,,,2009
,Al0.304 Co1 Cr1 Fe1 Ni1,186,10.1016/j.jallcom.2013.11.084,ANNEAL,FCC,,,,,,7.6,,,,,,,,,210.0,2014
,Al0.304 Co1 Cr1 Fe1 Ni1,187,10.1016/j.matdes.2016.05.079,ANNEAL,FCC+B2,,,,,,7.6,,,,,,,,,,2016
,Al0.304 Co1 Cr1 Fe1 Ni1,170,10.1016/j.msea.2015.02.072,CAST,FCC,,,,,,7.6,,C,25.0,,,25.0,,,210.0,2015
Al0.304 Cr0.435 Fe0.435 Ni1,,,,,,,,,,,,,,,,,,,,,
,Al0.304 Cr0.435 Fe0.435 Ni1,245,10.1016/j.jallcom.2018.08.176,CAST,FCC+BCC+B2,,,,,,7.2,,T,25.0,461.0,835.0,30.0,,,,2019
Al0.312 Ca0.021 Li0.792 Mg1 Si0.021,,,,,,,,,,,,,,,,,,,,,