Alloy composition,FORMULA,IDENTIFIER: Reference ID,REFERENCE: doi,PROPERTY: Processing method,PROPERTY: Microstructure,PROPERTY: O content (wppm),PROPERTY: N content (wppm),PROPERTY: C content (wppm),PROPERTY: grain size ($\mu$m),PROPERTY: Exp. Density (g/cm$^3$),PROPERTY: Calculated Density (g/cm$^3$),PROPERTY: HV,PROPERTY: Type of test,PROPERTY: Test temperature ($^\circ$C),PROPERTY: YS (MPa),PROPERTY: UTS (MPa),PROPERTY: Elongation (%),PROPERTY: Elongation plastic (%),PROPERTY: Exp. Young modulus (GPa),PROPERTY: Calculated Young modulus (GPa),REFERENCE: year
,Hf1 Mo0.5 Nb1 Si0.3 Ti1 V0.5,75,10.1016/j.jallcom.2016.10.014,CAST,BCC+Sec.,,,,,,8.5,,C,1000.0,398.0,430.0,,,,,2017
,Hf1 Mo0.5 Nb1 Si0.3 Ti1 V0.5,75,10.1016/j.jallcom.2016.10.014,CAST,BCC+Sec.,,,,,,8.5,,C,25.0,1617.0,2016.0,,,,,2017
,Hf1 Mo0.5 Nb1 Si0.3 Ti1 V0.5,75,10.1016/j.jallcom.2016.10.014,CAST,BCC+Sec.,,,,,,8.5,,C,1200.0,166.0,187.0,,,,,2017
,Hf1 Mo0.5 Nb1 Si0.3 Ti1 V0.5,165,10.1016/j.actamat.2019.06.032,CAST,BCC+Sec.,,,,,8.46,8.5,,C,23.0,1617.0,,,,,,2019
,Hf1 Mo0.5 Nb1 Si0.3 Ti1 V0.5,165,10.1016/j.actamat.2019.06.032,CAST,BCC+Sec.,,,,,8.46,8.5,,C,1000.0,398.0,,,,,,2019
,Hf1 Mo0.5 Nb1 Si0.3 Ti1 V0.5,165,10.1016/j.actamat.2019.06.032,CAST,BCC+Sec.,,,,,8.46,8.5,,C,1200.0,166.0,,,,,,2019
Hf1 Mo0.5 Nb1 Si0.5 Ti1 V0.5,,,,,,,,,,,,,,,,,,,,,
,Hf1 Mo0.5 Nb1 Si0.5 Ti1 V0.5,75,10.1016/j.jallcom.2016.10.014,CAST,BCC+Sec.,,,,,,8.2,,C,1000.0,614.0,696.0,,,,,2017
,Hf1 Mo0.5 Nb1 Si0.5 Ti1 V0.5,75,10.1016/j.jallcom.2016.10.014,CAST,BCC+Sec.,,,,,,8.2,,C,25.0,1787.0,2052.0,,,,,2017
,Hf1 Mo0.5 Nb1 Si0.5 Ti1 V0.5,75,10.1016/j.jallcom.2016.10.014,CAST,BCC+Sec.,,,,,,8.2,,C,1200.0,188.0,219.0,,,,,2017
,Hf1 Mo0.5 Nb1 Si0.5 Ti1 V0.5,165,10.1016/j.actamat.2019.06.032,CAST,BCC+Sec.,,,,,8.16,8.2,,C,23.0,1787.0,,,,,,2019
,Hf1 Mo0.5 Nb1 Si0.5 Ti1 V0.5,165,10.1016/j.actamat.2019.06.032,CAST,BCC+Sec.,,,,,8.16,8.2,,C,1000.0,614.0,,,,,,2019
,Hf1 Mo0.5 Nb1 Si0.5 Ti1 V0.5,165,10.1016/j.actamat.2019.06.032,CAST,BCC+Sec.,,,,,8.16,8.2,,C,1200.0,188.0,,,,,,2019
Hf1 Mo0.5 Nb1 Si0.7 Ti1 V0.5,,,,,,,,,,,,,,,,,,,,,
,Hf1 Mo0.5 Nb1 Si0.7 Ti1 V0.5,75,10.1016/j.jallcom.2016.10.014,CAST,BCC+Sec.,,,,,,7.9,,C,1000.0,673.0,741.0,,,,,2017
,Hf1 Mo0.5 Nb1 Si0.7 Ti1 V0.5,75,10.1016/j.jallcom.2016.10.014,CAST,BCC+Sec.,,,,,,7.9,,C,25.0,2134.0,2242.0,,,,,2017
,Hf1 Mo0.5 Nb1 Si0.7 Ti1 V0.5,75,10.1016/j.jallcom.2016.10.014,CAST,BCC+Sec.,,,,,,7.9,,C,1200.0,235.0,268.0,,,,,2017
,Hf1 Mo0.5 Nb1 Si0.7 Ti1 V0.5,165,10.1016/j.actamat.2019.06.032,CAST,BCC+Sec.,,,,,7.89,7.9,,C,23.0,2134.0,,,,,,2019
,Hf1 Mo0.5 Nb1 Si0.7 Ti1 V0.5,165,10.1016/j.actamat.2019.06.032,CAST,BCC+Sec.,,,,,7.89,7.9,,C,1000.0,673.0,,,,,,2019
,Hf1 Mo0.5 Nb1 Si0.7 Ti1 V0.5,165,10.1016/j.actamat.2019.06.032,CAST,BCC+Sec.,,,,,7.89,7.9,,C,1200.0,235.0,,,,,,2019
Hf1 Mo0.5 Nb1 Ta1 Ti1 Zr1,,,,,,,,,,,,,,,,,,,,,
,Hf1 Mo0.5 Nb1 Ta1 Ti1 Zr1,48,10.1016/j.matlet.2016.03.133,CAST,BCC,,,,,,9.9,480.0,C,25.0,1317.0,,50.0,,102.0,123.0,2016
Hf1 Mo0.5 Nb1 Ti1 V0.5,,,,,,,,,,,,,,,,,,,,,
,Hf1 Mo0.5 Nb1 Ti1 V0.5,75,10.1016/j.jallcom.2016.10.014,CAST,BCC,,,,,,9.0,,C,1000.0,368.0,394.0,,,,126.0,2017
,Hf1 Mo0.5 Nb1 Ti1 V0.5,75,10.1016/j.jallcom.2016.10.014,CAST,BCC,,,,,,9.0,,C,1200.0,60.0,,,,,126.0,2017
,Hf1 Mo0.5 Nb1 Ti1 V0.5,75,10.1016/j.jallcom.2016.10.014,CAST,BCC,,,,,,9.0,,C,25.0,1260.0,,,,,126.0,2017
,Hf1 Mo0.5 Nb1 Ti1 V0.5,165,10.1016/j.actamat.2019.06.032,CAST,BCC,,,,,8.96,9.0,,C,23.0,1260.0,,,,,126.0,2019
,Hf1 Mo0.5 Nb1 Ti1 V0.5,165,10.1016/j.actamat.2019.06.032,CAST,BCC,,,,,8.96,9.0,,C,1000.0,368.0,,,,,126.0,2019
,Hf1 Mo0.5 Nb1 Ti1 V0.5,165,10.1016/j.actamat.2019.06.032,CAST,BCC,,,,,8.96,9.0,,C,1200.0,60.0,,,,,126.0,2019
Hf1 Mo0.75 Nb1 Ta1 Ti1 Zr1,,,,,,,,,,,,,,,,,,,,,
,Hf1 Mo0.75 Nb1 Ta1 Ti1 Zr1,48,10.1016/j.matlet.2016.03.133,CAST,BCC,,,,,,9.9,492.0,C,25.0,1373.0,,50.0,,109.0,130.0,2016
Hf1 Mo1 Nb1 Ta1 Ti1,,,,,,,,,,,,,,,,,,,,,
,Hf1 Mo1 Nb1 Ta1 Ti1,127,10.3390/e21010015,CAST,BCC,,,,,,10.8,,C,25.0,1369.0,,27.0,,,155.0,2018
,Hf1 Mo1 Nb1 Ta1 Ti1,127,10.3390/e21010015,CAST,BCC,,,,,,10.8,,C,800.0,822.0,,,,,155.0,2018
,Hf1 Mo1 Nb1 Ta1 Ti1,127,10.3390/e21010015,CAST,BCC,,,,,,10.8,,C,1000.0,778.0,,,,,155.0,2018
,Hf1 Mo1 Nb1 Ta1 Ti1,127,10.3390/e21010015,CAST,BCC,,,,,,10.8,,C,1200.0,699.0,,,,,155.0,2018
,Hf1 Mo1 Nb1 Ta1 Ti1,127,10.3390/e21010015,CAST,BCC,,,,,,10.8,,C,1400.0,367.0,,,,,155.0,2018
Hf1 Mo1 Nb1 Ta1 Ti1 W1 Zr1,,,,,,,,,,,,,,,,,,,,,
,Hf1 Mo1 Nb1 Ta1 Ti1 W1 Zr1,230,10.1016/j.jallcom.2019.06.138,CAST,BCC+Laves,,,,31.7,,11.1,,C,25.0,1637.0,,15.5,,,,2019
,Hf1 Mo1 Nb1 Ta1 Ti1 W1 Zr1,230,10.1016/j.jallcom.2019.06.138,CAST,BCC+Laves,,,,,,11.1,,C,800.0,1065.0,,35.0,,,,2019
,Hf1 Mo1 Nb1 Ta1 Ti1 W1 Zr1,230,10.1016/j.jallcom.2019.06.138,CAST,BCC+Laves,,,,,,11.1,,C,1000.0,736.0,,35.0,,,,2019
,Hf1 Mo1 Nb1 Ta1 Ti1 W1 Zr1,230,10.1016/j.jallcom.2019.06.138,CAST,BCC+Laves,,,,,,11.1,,C,1200.0,703.0,,35.0,,,,2019
Hf1 Mo1 Nb1 Ta1 Ti1 Zr1,,,,,,,,,,,,,,,,,,,,,
,Hf1 Mo1 Nb1 Ta1 Ti1 Zr1,48,10.1016/j.matlet.2016.03.133,CAST,BCC,,,,,,9.9,505.0,C,25.0,1512.0,1800.0,12.0,,115.0,137.0,2016
,Hf1 Mo1 Nb1 Ta1 Ti1 Zr1,49,10.1016/j.intermet.2015.03.013,CAST,BCC,,,,,,9.9,505.0,C,25.0,1512.0,,12.0,,,137.0,2015
,Hf1 Mo1 Nb1 Ta1 Ti1 Zr1,49,10.1016/j.intermet.2015.03.013,CAST,BCC,,,,,,9.9,,C,800.0,1007.0,,23.0,,,137.0,2015
,Hf1 Mo1 Nb1 Ta1 Ti1 Zr1,49,10.1016/j.intermet.2015.03.013,CAST,BCC,,,,,,9.9,,C,1000.0,814.0,,30.0,,,137.0,2015
,Hf1 Mo1 Nb1 Ta1 Ti1 Zr1,49,10.1016/j.intermet.2015.03.013,CAST,BCC,,,,,,9.9,,C,1200.0,556.0,,30.0,,,137.0,2015
,Hf1 Mo1 Nb1 Ta1 Ti1 Zr1,165,10.1016/j.actamat.2019.06.032,CAST,BCC,,,,,9.93,9.9,,C,23.0,1512.0,,,,,137.0,2019
,Hf1 Mo1 Nb1 Ta1 Ti1 Zr1,165,10.1016/j.actamat.2019.06.032,CAST,BCC,,,,,9.93,9.9,,C,1000.0,814.0,,,,,137.0,2019
,Hf1 Mo1 Nb1 Ta1 Ti1 Zr1,165,10.1016/j.actamat.2019.06.032,CAST,BCC,,,,,9.93,9.9,,C,1200.0,556.0,,,,,137.0,2019
,Hf1 Mo1 Nb1 Ta1 Ti1 Zr1,127,10.3390/e21010015,CAST,BCC,,,,,,9.9,,C,25.0,1512.0,,12.0,,,137.0,2018
,Hf1 Mo1 Nb1 Ta1 Ti1 Zr1,127,10.3390/e21010015,CAST,BCC,,,,,,9.9,,C,800.0,1007.0,,,,,137.0,2018
,Hf1 Mo1 Nb1 Ta1 Ti1 Zr1,127,10.3390/e21010015,CAST,BCC,,,,,,9.9,,C,1000.0,814.0,,,,,137.0,2018
,Hf1 Mo1 Nb1 Ta1 Ti1 Zr1,127,10.3390/e21010015,CAST,BCC,,,,,,9.9,,C,1200.0,556.0,,,,,137.0,2018
Hf1 Mo1 Nb1 Ta1 Zr1,,,,,,,,,,,,,,,,,,,,,
,Hf1 Mo1 Nb1 Ta1 Zr1,127,10.3390/e21010015,CAST,BCC,,,,,,10.9,,C,25.0,1524.0,,16.0,,,141.0,2018
,Hf1 Mo1 Nb1 Ta1 Zr1,127,10.3390/e21010015,CAST,BCC,,,,,,10.9,,C,800.0,1005.0,,,,,141.0,2018
,Hf1 Mo1 Nb1 Ta1 Zr1,127,10.3390/e21010015,CAST,BCC,,,,,,10.9,,C,1000.0,927.0,,,,,141.0,2018
,Hf1 Mo1 Nb1 Ta1 Zr1,127,10.3390/e21010015,CAST,BCC,,,,,,10.9,,C,1200.0,694.0,,,,,141.0,2018
,Hf1 Mo1 Nb1 Ta1 Zr1,127,10.3390/e21010015,CAST,BCC,,,,,,10.9,,C,1400.0,278.0,,,,,141.0,2018
Hf1 Mo1 Nb1 Ti1 Zr1,,,,,,,,,,,,,,,,,,,,,
,Hf1 Mo1 Nb1 Ti1 Zr1,50,10.1016/j.matdes.2015.05.019,ANNEAL,BCC,,,,,,8.7,,C,25.0,1575.0,1640.0,9.0,,,128.0,2015
,Hf1 Mo1 Nb1 Ti1 Zr1,50,10.1016/j.matdes.2015.05.019,ANNEAL,BCC,,,,,,8.7,,C,800.0,825.0,1095.0,50.0,,,128.0,2015
,Hf1 Mo1 Nb1 Ti1 Zr1,50,10.1016/j.matdes.2015.05.019,ANNEAL,BCC,,,,,,8.7,,C,1000.0,635.0,654.0,50.0,,,128.0,2015
,Hf1 Mo1 Nb1 Ti1 Zr1,50,10.1016/j.matdes.2015.05.019,ANNEAL,BCC,,,,,,8.7,,C,1200.0,187.0,194.0,50.0,,,128.0,2015
,Hf1 Mo1 Nb1 Ti1 Zr1,50,10.1016/j.matdes.2015.05.019,CAST,BCC,,,,,,8.7,,C,25.0,1719.0,1803.0,10.0,,,128.0,2015
,Hf1 Mo1 Nb1 Ti1 Zr1,165,10.1016/j.actamat.2019.06.032,CAST,BCC,,,,,8.68,8.7,,C,23.0,1575.0,,,,,128.0,2019
,Hf1 Mo1 Nb1 Ti1 Zr1,165,10.1016/j.actamat.2019.06.032,CAST,BCC,,,,,8.68,8.7,,C,1000.0,635.0,,,,,128.0,2019
,Hf1 Mo1 Nb1 Ti1 Zr1,165,10.1016/j.actamat.2019.06.032,CAST,BCC,,,,,8.68,8.7,,C,1200.0,187.0,,,,,128.0,2019
,Hf1 Mo1 Nb1 Ti1 Zr1,207,10.1016/j.intermet.2015.10.011,CAST,BCC,,,,,8.68,8.7,,C,25.0,1719.0,,,,,128.0,2016
,Hf1 Mo1 Nb1 Ti1 Zr1,127,10.3390/e21010015,CAST,BCC,,,,,,8.7,,C,25.0,1351.0,,20.0,,,128.0,2018
,Hf1 Mo1 Nb1 Ti1 Zr1,127,10.3390/e21010015,CAST,BCC,,,,,,8.7,,C,800.0,829.0,,,,,128.0,2018
,Hf1 Mo1 Nb1 Ti1 Zr1,127,10.3390/e21010015,CAST,BCC,,,,,,8.7,,C,1000.0,721.0,,,,,128.0,2018
,Hf1 Mo1 Nb1 Ti1 Zr1,127,10.3390/e21010015,CAST,BCC,,,,,,8.7,,C,1200.0,301.0,,,,,128.0,2018
Hf1 Mo1 Ta1 Ti1 Zr1,,,,,,,,,,,,,,,,,,,,,
,Hf1 Mo1 Ta1 Ti1 Zr1,49,10.1016/j.intermet.2015.03.013,CAST,BCC,,,,,,10.2,542.0,C,25.0,1600.0,1743.0,4.0,,,143.0,2015
,Hf1 Mo1 Ta1 Ti1 Zr1,49,10.1016/j.intermet.2015.03.013,CAST,BCC,,,,,,10.2,,C,800.0,1045.0,1446.0,19.0,,,143.0,2015
,Hf1 Mo1 Ta1 Ti1 Zr1,49,10.1016/j.intermet.2015.03.013,CAST,BCC,,,,,,10.2,,C,1000.0,855.0,,30.0,,,143.0,2015
,Hf1 Mo1 Ta1 Ti1 Zr1,49,10.1016/j.intermet.2015.03.013,CAST,BCC,,,,,,10.2,,C,1200.0,404.0,,30.0,,,143.0,2015
,Hf1 Mo1 Ta1 Ti1 Zr1,165,10.1016/j.actamat.2019.06.032,CAST,BCC,,,,,10.18,10.2,,C,23.0,1600.0,,,,,143.0,2019
,Hf1 Mo1 Ta1 Ti1 Zr1,165,10.1016/j.actamat.2019.06.032,CAST,BCC,,,,,10.18,10.2,,C,1000.0,855.0,,,,,143.0,2019
,Hf1 Mo1 Ta1 Ti1 Zr1,165,10.1016/j.actamat.2019.06.032,CAST,BCC,,,,,10.18,10.2,,C,1200.0,404.0,,,,,143.0,2019
,Hf1 Mo1 Ta1 Ti1 Zr1,127,10.3390/e21010015,CAST,BCC,,,,,,10.2,,C,25.0,1600.0,,4.0,,,143.0,2018
,Hf1 Mo1 Ta1 Ti1 Zr1,127,10.3390/e21010015,CAST,BCC,,,,,,10.2,,C,800.0,1045.0,,,,,143.0,2018
,Hf1 Mo1 Ta1 Ti1 Zr1,127,10.3390/e21010015,CAST,BCC,,,,,,10.2,,C,1000.0,855.0,,,,,143.0,2018
,Hf1 Mo1 Ta1 Ti1 Zr1,127,10.3390/e21010015,CAST,BCC,,,,,,10.2,,C,1200.0,404.0,,,,,143.0,2018
Hf1 Nb1 Si0.5 Ti1 V1,,,,,,,,,,,,,,,,,,,,,
,Hf1 Nb1 Si0.5 Ti1 V1,51,10.1016/j.matlet.2016.03.092,CAST,BCC+Sec.,,,,,,7.8,,C,800.0,875.0,,50.0,,,,2016
,Hf1 Nb1 Si0.5 Ti1 V1,51,10.1016/j.matlet.2016.03.092,CAST,BCC+Sec.,,,,,,7.8,,C,1000.0,240.0,,50.0,,,,2016
,Hf1 Nb1 Si0.5 Ti1 V1,51,10.1016/j.matlet.2016.03.092,CAST,BCC+Sec.,,,,,,7.8,490.0,C,25.0,1399.0,1608.0,11.0,,,,2016
Hf1 Nb1 Si0.5 Ti1 V1 Zr1,,,,,,,,,,,,,,,,,,,,,
,Hf1 Nb1 Si0.5 Ti1 V1 Zr1,78,10.4028/www.scientific.net/MSF.849.76,ANNEAL,BCC+Laves+Sec.,,,,,,7.5,,C,400.0,1273.0,1335.0,14.5,,,,2016
,Hf1 Nb1 Si0.5 Ti1 V1 Zr1,78,10.4028/www.scientific.net/MSF.849.76,ANNEAL,BCC+Laves+Sec.,,,,,,7.5,,C,600.0,597.0,651.0,50.0,,,,2016
,Hf1 Nb1 Si0.5 Ti1 V1 Zr1,78,10.4028/www.scientific.net/MSF.849.76,ANNEAL,BCC+Laves+Sec.,,,,,,7.5,,C,800.0,102.0,107.0,50.0,,,,2016
,Hf1 Nb1 Si0.5 Ti1 V1 Zr1,78,10.4028/www.scientific.net/MSF.849.76,ANNEAL,BCC+Laves+Sec.,,,,,,7.5,,C,25.0,1483.0,1611.0,9.5,,,,2016
,Hf1 Nb1 Si0.5 Ti1 V1 Zr1,78,10.4028/www.scientific.net/MSF.849.76,CAST,BCC+Laves+Sec.,,,,,,7.5,,C,600.0,920.0,1252.0,50.0,,,,2016
,Hf1 Nb1 Si0.5 Ti1 V1 Zr1,78,10.4028/www.scientific.net/MSF.849.76,CAST,BCC+Laves+Sec.,,,,,,7.5,,C,800.0,371.0,427.0,50.0,,,,2016
,Hf1 Nb1 Si0.5 Ti1 V1 Zr1,78,10.4028/www.scientific.net/MSF.849.76,CAST,BCC+Laves+Sec.,,,,,,7.5,,C,25.0,1540.0,1643.0,16.8,,,,2016
Hf1 Nb1 Ta1 Ti1,,,,,,,,,,,,,,,,,,,,,
,Hf1 Nb1 Ta1 Ti1,238,10.1016/j.actamat.2019.06.006,ANNEAL,BCC,160.0,5.0,,,,10.9,,C,20.0,860.0,,,,,119.0,2019
,Hf1 Nb1 Ta1 Ti1,238,10.1016/j.actamat.2019.06.006,ANNEAL,BCC,160.0,5.0,,,,10.9,,C,20.0,834.0,,,,,119.0,2019
,Hf1 Nb1 Ta1 Ti1,238,10.1016/j.actamat.2019.06.006,ANNEAL,BCC,160.0,5.0,,,,10.9,,C,200.0,610.0,,,,,119.0,2019
,Hf1 Nb1 Ta1 Ti1,238,10.1016/j.actamat.2019.06.006,ANNEAL,BCC,160.0,5.0,,,,10.9,,C,600.0,473.0,,,,,119.0,2019
,Hf1 Nb1 Ta1 Ti1,265,10.1016/j.matdes.2018.06.003,ANNEAL,BCC,,,,,,10.9,280.0,,,,,,,,119.0,2018
,Hf1 Nb1 Ta1 Ti1,265,10.1016/j.matdes.2018.06.003,CAST,BCC,,,,,,10.9,270.0,,,,,,,,119.0,2018
Hf1 Nb1 Ta1 Ti1 W1 Zr1,,,,,,,,,,,,,,,,,,,,,
,Hf1 Nb1 Ta1 Ti1 W1 Zr1,230,10.1016/j.jallcom.2019.06.138,CAST,BCC+Laves,,,,29.4,,11.2,,C,25.0,1550.0,,26.3,,,,2019
,Hf1 Nb1 Ta1 Ti1 W1 Zr1,230,10.1016/j.jallcom.2019.06.138,CAST,BCC+Laves,,,,,,11.2,,C,800.0,577.0,,35.0,,,,2019
,Hf1 Nb1 Ta1 Ti1 W1 Zr1,230,10.1016/j.jallcom.2019.06.138,CAST,BCC+Laves,,,,,,11.2,,C,1000.0,409.0,,35.0,,,,2019
,Hf1 Nb1 Ta1 Ti1 W1 Zr1,230,10.1016/j.jallcom.2019.06.138,CAST,BCC+Laves,,,,,,11.2,,C,1200.0,345.0,,35.0,,,,2019
Hf1 Nb1 Ta1 Ti1 Zr1,,,,,,,,,,,,,,,,,,,,,
,Hf1 Nb1 Ta1 Ti1 Zr1,40,10.1016/j.jallcom.2014.11.064,CAST,BCC,,,,120.0,,9.9,295.0,C,25.0,1073.0,,50.0,,55.0,107.0,2015
,Hf1 Nb1 Ta1 Ti1 Zr1,48,10.1016/j.matlet.2016.03.133,CAST,BCC,,,,,,9.9,335.0,C,25.0,1015.0,,50.0,,85.0,107.0,2016
,Hf1 Nb1 Ta1 Ti1 Zr1,53,10.1007/s10853-012-6260-2,OTHER,BCC,,,,,,9.9,,C,25.0,929.0,,50.0,,,107.0,2012
,Hf1 Nb1 Ta1 Ti1 Zr1,53,10.1007/s10853-012-6260-2,OTHER,BCC,,,,,,9.9,,C,400.0,790.0,,50.0,,,107.0,2012
,Hf1 Nb1 Ta1 Ti1 Zr1,53,10.1007/s10853-012-6260-2,OTHER,BCC,,,,,,9.9,,C,600.0,675.0,,50.0,,,107.0,2012
,Hf1 Nb1 Ta1 Ti1 Zr1,53,10.1007/s10853-012-6260-2,OTHER,BCC,,,,,,9.9,,C,800.0,535.0,,50.0,,,107.0,2012
,Hf1 Nb1 Ta1 Ti1 Zr1,53,10.1007/s10853-012-6260-2,OTHER,BCC,,,,,,9.9,,C,1000.0,295.0,,50.0,,,107.0,2012
,Hf1 Nb1 Ta1 Ti1 Zr1,53,10.1007/s10853-012-6260-2,OTHER,BCC,,,,,,9.9,,C,1200.0,92.0,,50.0,,,107.0,2012
,Hf1 Nb1 Ta1 Ti1 Zr1,79,10.1016/j.actamat.2017.09.035,OTHER,BCC,,,,0.05,,9.9,420.0,T,25.0,1900.0,,7.9,,,107.0,2018
,Hf1 Nb1 Ta1 Ti1 Zr1,79,10.1016/j.actamat.2017.09.035,OTHER,BCC+HCP,,,,0.05,,9.9,530.0,T,25.0,1520.0,,1.7,,,,2018
,Hf1 Nb1 Ta1 Ti1 Zr1,79,10.1016/j.actamat.2017.09.035,OTHER,BCC+BCC+HCP,,,,0.1,,9.9,340.0,T,25.0,795.0,,5.0,,,,2018
,Hf1 Nb1 Ta1 Ti1 Zr1,79,10.1016/j.actamat.2017.09.035,WROUGHT,BCC,,,,100.0,,9.9,309.0,T,25.0,830.0,840.0,9.2,,,107.0,2018
,Hf1 Nb1 Ta1 Ti1 Zr1,80,10.1016/j.jallcom.2015.07.209,WROUGHT,BCC,,,,,,9.9,366.0,T,25.0,1202.0,1295.0,4.7,,,107.0,2015
,Hf1 Nb1 Ta1 Ti1 Zr1,80,10.1016/j.jallcom.2015.07.209,WROUGHT,BCC+BCC,,,,,,9.9,,T,25.0,1303.0,1334.0,,,,,2015
,Hf1 Nb1 Ta1 Ti1 Zr1,80,10.1016/j.jallcom.2015.07.209,WROUGHT,BCC,,,,,,9.9,351.0,T,25.0,1145.0,1262.0,9.7,,,107.0,2015
,Hf1 Nb1 Ta1 Ti1 Zr1,81,10.1016/j.matlet.2016.08.060,WROUGHT,BCC,,,,,,9.9,,T,25.0,958.0,974.0,,,,107.0,2016
,Hf1 Nb1 Ta1 Ti1 Zr1,81,10.1016/j.matlet.2016.08.060,WROUGHT,BCC,,,,,,9.9,,T,25.0,944.0,959.0,,,,107.0,2016
,Hf1 Nb1 Ta1 Ti1 Zr1,81,10.1016/j.matlet.2016.08.060,WROUGHT,BCC,,,,,,9.9,,T,25.0,940.0,953.0,,,,107.0,2016
,Hf1 Nb1 Ta1 Ti1 Zr1,82,10.1016/j.actamat.2017.09.062,WROUGHT,BCC,,,,,,9.9,,T,25.0,940.0,1080.0,,,,107.0,2018
,Hf1 Nb1 Ta1 Ti1 Zr1,83,10.1016/j.msea.2015.08.024,CAST,BCC,,,,,,9.9,,C,25.0,905.0,,,,,107.0,2015
,Hf1 Nb1 Ta1 Ti1 Zr1,84,10.1016/j.matchar.2015.11.018,CAST,BCC,,,,,,9.9,,C,25.0,890.0,,,,,107.0,2016
,Hf1 Nb1 Ta1 Ti1 Zr1,85,10.1016/j.msea.2015.12.017,CAST,BCC,,,,,,9.9,,T,25.0,828.0,862.0,,,,107.0,2016
,Hf1 Nb1 Ta1 Ti1 Zr1,85,10.1016/j.msea.2015.12.017,CAST,BCC,,,,,,9.9,,T,25.0,827.0,856.0,,,,107.0,2016
,Hf1 Nb1 Ta1 Ti1 Zr1,85,10.1016/j.msea.2015.12.017,CAST,BCC,,,,,,9.9,,T,25.0,820.0,869.0,,,,107.0,2016
,Hf1 Nb1 Ta1 Ti1 Zr1,85,10.1016/j.msea.2015.12.017,CAST,BCC,,,,,,9.9,,T,25.0,803.0,810.0,,,,107.0,2016
,Hf1 Nb1 Ta1 Ti1 Zr1,154,10.1016/j.matchar.2018.07.015,WROUGHT,BCC,,,,,,9.9,,,,,,,,,107.0,2019
,Hf1 Nb1 Ta1 Ti1 Zr1,165,10.1016/j.actamat.2019.06.032,OTHER,BCC,,,,,9.89,9.9,,C,23.0,929.0,,,,,107.0,2019
,Hf1 Nb1 Ta1 Ti1 Zr1,165,10.1016/j.actamat.2019.06.032,OTHER,BCC,,,,,9.89,9.9,,C,1000.0,295.0,,,,,107.0,2019
,Hf1 Nb1 Ta1 Ti1 Zr1,165,10.1016/j.actamat.2019.06.032,OTHER,BCC,,,,,9.89,9.9,,C,1200.0,92.0,,,,,107.0,2019
,Hf1 Nb1 Ta1 Ti1 Zr1,203,10.1016/j.jallcom.2019.04.291,WROUGHT,BCC,,,,40.0,,9.9,,T,25.0,985.0,1004.0,15.7,,,107.0,2019
,Hf1 Nb1 Ta1 Ti1 Zr1,203,10.1016/j.jallcom.2019.04.291,WROUGHT,BCC,,,,87.0,,9.9,,T,25.0,972.0,999.5,12.6,,,107.0,2019
,Hf1 Nb1 Ta1 Ti1 Zr1,203,10.1016/j.jallcom.2019.04.291,WROUGHT,BCC,,,,112.0,,9.9,,T,25.0,967.0,980.6,10.8,,,107.0,2019
,Hf1 Nb1 Ta1 Ti1 Zr1,235,10.1016/j.jallcom.2019.05.322,WROUGHT,BCC,,,,60.0,,9.9,,,20.0,,,,,88.9,107.0,2019
,Hf1 Nb1 Ta1 Ti1 Zr1,235,10.1016/j.jallcom.2019.05.322,WROUGHT,BCC,,,,,,9.9,,,40.0,,,,,88.6,107.0,2019
,Hf1 Nb1 Ta1 Ti1 Zr1,235,10.1016/j.jallcom.2019.05.322,WROUGHT,BCC,,,,,,9.9,,,60.0,,,,,88.4,107.0,2019
,Hf1 Nb1 Ta1 Ti1 Zr1,235,10.1016/j.jallcom.2019.05.322,WROUGHT,BCC,,,,,,9.9,,,80.0,,,,,88.1,107.0,2019
,Hf1 Nb1 Ta1 Ti1 Zr1,235,10.1016/j.jallcom.2019.05.322,WROUGHT,BCC,,,,,,9.9,,,100.0,,,,,87.9,107.0,2019
,Hf1 Nb1 Ta1 Ti1 Zr1,235,10.1016/j.jallcom.2019.05.322,WROUGHT,BCC,,,,,,9.9,,,120.0,,,,,87.7,107.0,2019
,Hf1 Nb1 Ta1 Ti1 Zr1,235,10.1016/j.jallcom.2019.05.322,WROUGHT,BCC,,,,,,9.9,,,140.0,,,,,87.5,107.0,2019
,Hf1 Nb1 Ta1 Ti1 Zr1,235,10.1016/j.jallcom.2019.05.322,WROUGHT,BCC,,,,,,9.9,,,160.0,,,,,87.3,107.0,2019
,Hf1 Nb1 Ta1 Ti1 Zr1,235,10.1016/j.jallcom.2019.05.322,WROUGHT,BCC,,,,,,9.9,,,180.0,,,,,87.1,107.0,2019
,Hf1 Nb1 Ta1 Ti1 Zr1,235,10.1016/j.jallcom.2019.05.322,WROUGHT,BCC,,,,,,9.9,,,200.0,,,,,86.9,107.0,2019
,Hf1 Nb1 Ta1 Ti1 Zr1,235,10.1016/j.jallcom.2019.05.322,WROUGHT,BCC,,,,,,9.9,,,220.0,,,,,86.7,107.0,2019
,Hf1 Nb1 Ta1 Ti1 Zr1,235,10.1016/j.jallcom.2019.05.322,WROUGHT,BCC,,,,,,9.9,,,240.0,,,,,86.5,107.0,2019
,Hf1 Nb1 Ta1 Ti1 Zr1,235,10.1016/j.jallcom.2019.05.322,WROUGHT,BCC,,,,,,9.9,,,260.0,,,,,86.3,107.0,2019
,Hf1 Nb1 Ta1 Ti1 Zr1,235,10.1016/j.jallcom.2019.05.322,WROUGHT,BCC,,,,,,9.9,,,280.0,,,,,86.1,107.0,2019
,Hf1 Nb1 Ta1 Ti1 Zr1,235,10.1016/j.jallcom.2019.05.322,WROUGHT,BCC,,,,,,9.9,,,300.0,,,,,85.8,107.0,2019
,Hf1 Nb1 Ta1 Ti1 Zr1,235,10.1016/j.jallcom.2019.05.322,WROUGHT,BCC,,,,,,9.9,,,320.0,,,,,85.5,107.0,2019
,Hf1 Nb1 Ta1 Ti1 Zr1,235,10.1016/j.jallcom.2019.05.322,WROUGHT,BCC,,,,,,9.9,,,340.0,,,,,85.2,107.0,2019
,Hf1 Nb1 Ta1 Ti1 Zr1,235,10.1016/j.jallcom.2019.05.322,WROUGHT,BCC,,,,,,9.9,,,360.0,,,,,84.9,107.0,2019
,Hf1 Nb1 Ta1 Ti1 Zr1,235,10.1016/j.jallcom.2019.05.322,WROUGHT,BCC,,,,,,9.9,,,380.0,,,,,84.5,107.0,2019
,Hf1 Nb1 Ta1 Ti1 Zr1,235,10.1016/j.jallcom.2019.05.322,WROUGHT,BCC,,,,,,9.9,,,400.0,,,,,84.2,107.0,2019
,Hf1 Nb1 Ta1 Ti1 Zr1,235,10.1016/j.jallcom.2019.05.322,WROUGHT,BCC,,,,,,9.9,,,420.0,,,,,83.8,107.0,2019
,Hf1 Nb1 Ta1 Ti1 Zr1,235,10.1016/j.jallcom.2019.05.322,WROUGHT,BCC,,,,,,9.9,,,440.0,,,,,83.5,107.0,2019
,Hf1 Nb1 Ta1 Ti1 Zr1,235,10.1016/j.jallcom.2019.05.322,WROUGHT,BCC,,,,,,9.9,,,460.0,,,,,83.1,107.0,2019
,Hf1 Nb1 Ta1 Ti1 Zr1,235,10.1016/j.jallcom.2019.05.322,WROUGHT,BCC,,,,,,9.9,,,480.0,,,,,82.7,107.0,2019
,Hf1 Nb1 Ta1 Ti1 Zr1,235,10.1016/j.jallcom.2019.05.322,WROUGHT,BCC,,,,,,9.9,,,500.0,,,,,82.3,107.0,2019
,Hf1 Nb1 Ta1 Ti1 Zr1,235,10.1016/j.jallcom.2019.05.322,WROUGHT,BCC,,,,,,9.9,,,520.0,,,,,81.9,107.0,2019
,Hf1 Nb1 Ta1 Ti1 Zr1,235,10.1016/j.jallcom.2019.05.322,WROUGHT,BCC,,,,,,9.9,,,540.0,,,,,81.6,107.0,2019
,Hf1 Nb1 Ta1 Ti1 Zr1,235,10.1016/j.jallcom.2019.05.322,WROUGHT,BCC,,,,,,9.9,,,560.0,,,,,81.3,107.0,2019
,Hf1 Nb1 Ta1 Ti1 Zr1,235,10.1016/j.jallcom.2019.05.322,WROUGHT,BCC,,,,,,9.9,,,580.0,,,,,81.0,107.0,2019
,Hf1 Nb1 Ta1 Ti1 Zr1,235,10.1016/j.jallcom.2019.05.322,WROUGHT,BCC,,,,,,9.9,,,600.0,,,,,80.7,107.0,2019
,Hf1 Nb1 Ta1 Ti1 Zr1,235,10.1016/j.jallcom.2019.05.322,WROUGHT,BCC,,,,,,9.9,,,620.0,,,,,80.4,107.0,2019
,Hf1 Nb1 Ta1 Ti1 Zr1,235,10.1016/j.jallcom.2019.05.322,WROUGHT,BCC,,,,,,9.9,,,640.0,,,,,80.2,107.0,2019
,Hf1 Nb1 Ta1 Ti1 Zr1,235,10.1016/j.jallcom.2019.05.322,WROUGHT,BCC,,,,,,9.9,,,660.0,,,,,80.0,107.0,2019
,Hf1 Nb1 Ta1 Ti1 Zr1,235,10.1016/j.jallcom.2019.05.322,WROUGHT,BCC,,,,,,9.9,,,680.0,,,,,79.8,107.0,2019
,Hf1 Nb1 Ta1 Ti1 Zr1,235,10.1016/j.jallcom.2019.05.322,WROUGHT,BCC,,,,,,9.9,,,700.0,,,,,79.6,107.0,2019
,Hf1 Nb1 Ta1 Ti1 Zr1,235,10.1016/j.jallcom.2019.05.322,WROUGHT,BCC,,,,,,9.9,,,720.0,,,,,79.3,107.0,2019
,Hf1 Nb1 Ta1 Ti1 Zr1,235,10.1016/j.jallcom.2019.05.322,WROUGHT,BCC,,,,,,9.9,,,740.0,,,,,79.0,107.0,2019
,Hf1 Nb1 Ta1 Ti1 Zr1,235,10.1016/j.jallcom.2019.05.322,WROUGHT,BCC,,,,,,9.9,,,760.0,,,,,78.7,107.0,2019
,Hf1 Nb1 Ta1 Ti1 Zr1,235,10.1016/j.jallcom.2019.05.322,WROUGHT,BCC,,,,,,9.9,,,780.0,,,,,78.4,107.0,2019
,Hf1 Nb1 Ta1 Ti1 Zr1,235,10.1016/j.jallcom.2019.05.322,WROUGHT,BCC,,,,,,9.9,,,800.0,,,,,78.1,107.0,2019
,Hf1 Nb1 Ta1 Ti1 Zr1,235,10.1016/j.jallcom.2019.05.322,WROUGHT,BCC,,,,,,9.9,,,820.0,,,,,77.7,107.0,2019
,Hf1 Nb1 Ta1 Ti1 Zr1,235,10.1016/j.jallcom.2019.05.322,WROUGHT,BCC,,,,,,9.9,,,840.0,,,,,77.4,107.0,2019
,Hf1 Nb1 Ta1 Ti1 Zr1,119,10.3390/e21020114,CAST,BCC,,,,500.0,,9.9,359.0,T,25.0,1155.0,1212.0,12.3,,59.0,107.0,2019
,Hf1 Nb1 Ta1 Ti1 Zr1,130,10.1007/s11661-018-4646-8,OTHER,BCC,,,,,,9.9,,T,25.0,1438.0,,,,91.5,107.0,2018