REFERENCE: tag,REFERENCE: doi,FORMULA,PROPERTY: Type of phases,PROPERTY: Single/Multiphase,PROPERTY: synthesis method,PROPERTY: grain size ($\mu$m),PROPERTY: ROM Density (g/cm$^3$),PROPERTY: HV,PROPERTY: Type of test,PROPERTY: Test temperature ($^\circ$C),PROPERTY: YS (MPa),PROPERTY: UTS (MPa),PROPERTY: Elongation (%),PROPERTY: Elongation plastic (%),PROPERTY: Young modulus (GPa),PROPERTY: O content (wppm),PROPERTY: N content (wppm),PROPERTY: C content (wppm),REFERENCE: comment,"Internal Reference # (J4, J90)","J4, J90 Original DOI",PROPERTY: Exp. Density (g/cm$^3$),Unnamed: 22,IDENTIFIER: Reference ID,PROPERTY: BCC/FCC/other,PROPERTY: Processing method,PROPERTY: Microstructure,REFERENCE: year
J4,10.1016/j.matchar.2018.06.036,Al1 Co1 Cr1 Fe1 Ni1,BCC + B2,M,AC,,,,T,700.0,395.0,400.0,1.0,,,,,,tests were all done at 700C ,72,10.1016/j.msea.2015.08.078,,,159,other,CAST,,2018
J4,10.1016/j.matchar.2018.06.036,Al1 Co1 Cr1 Fe1 Ni1,BCC + B2 + FCC + $\sigma$,M,HIP + A,,,,T,700.0,295.0,393.0,12.0,,,,,,tests were all done at 700C; changed processing from AC to HIPED + A,72,10.1016/j.msea.2015.08.078,,,159,other,OTHER,,2018
J4,10.1016/j.matchar.2018.06.036,Al1 Co1 Cr1 Cu1 Fe1 Ni1,BCC + FCC1 + FCC2,M,AC,,,,T,700.0,350.0,360.0,5.0,,,,,,tests were all done at 700C ,42,10.1016/j.msea.2011.11.045,,,159,other,CAST,,2018
J4,10.1016/j.matchar.2018.06.036,Al1 Co1 Cr1 Cu1 Fe1 Ni1,BCC + FCC1 + FCC2 + $\sigma$,M,HF,,,,T,700.0,63.0,91.0,63.0,,,,,,tests were all done at 700C; changed processing from AC to F,42,10.1016/j.msea.2011.11.045,,,159,other,WROUGHT,,2018
J4,10.1016/j.matchar.2018.06.036,Al0.5 Co1 Cr1 Cu1 Fe1 Ni1,FCC,S,CR,,,,T,700.0,180.0,185.0,5.0,,,,,,tests were all done at 700C ,114,10.1016/j.jallcom.2009.10.088,,,159,FCC,WROUGHT,FCC,2018
J4,10.1016/j.matchar.2018.06.036,Al0.5 Co1 Cr1 Cu1 Fe1 Ni1,FCC1 + FCC2,M,CR + A,,,,T,700.0,160.0,180.0,12.0,,,,,,tests were all done at 700C ,114,10.1016/j.jallcom.2009.10.088,,,159,other,WROUGHT,,2018
J5,10.1016/j.actamat.2018.11.049,Co1 Cr1 Fe1 Ni1 Ti0.2,FCC,S,CR + A,51.0,,,T,25.0,700.0,1240.0,36.0,,,,,,"missed the ductility values, incorrect processing (from AC to CR + A), grain size to 51",,,4.8,,170,FCC,WROUGHT,FCC,2018
J5,10.1016/j.actamat.2018.11.049,Co1 Cr1 Fe1 Ni1 Ti0.2,FCC,S,CR + A,51.0,,,T,-196.0,860.0,1580.0,46.0,,,,,,"missed the ductility values, incorrect processing (from AC to CR + A), grain size to 51",,,4.8,,170,FCC,WROUGHT,FCC,2018
J6,10.1016/j.actamat.2018.12.012,Al0.1 Co1 Cr1 Fe1 Ni1,FCC,S,CR,20.0,,,T,25.0,1198.0,,1.5,,,,,,,,,,,179,FCC,WROUGHT,FCC,2018
J6,10.1016/j.actamat.2018.12.012,Al0.1 Co1 Cr1 Fe1 Ni1,FCC,S,CR + A,20.0,,,T,25.0,1403.0,,1.2,,,,,,"For future reference, any repeated formulat that includes Annealing (A) as synthesis method is assumed to have varying annealing duration and temperatures as the experimental variable",,,,,179,FCC,WROUGHT,FCC,2018
J6,10.1016/j.actamat.2018.12.012,Al0.1 Co1 Cr1 Fe1 Ni1,FCC,S,CR + A,20.0,,,T,25.0,711.0,928.0,30.3,,,,,,,,,,,179,FCC,WROUGHT,FCC,2018
J6,10.1016/j.actamat.2018.12.012,Al0.1 Co1 Cr1 Fe1 Ni1,FCC,S,CR + A,7.0,,,T,25.0,356.0,,42.4,,,,,,,,,,,179,FCC,WROUGHT,FCC,2018
J7,10.1016/j.msea.2018.10.094,Co1 Cr1 Fe1 Mn1 Ni1,FCC,S,CR + A,0.5,,,T,25.0,1120.0,,1.1,,,,,,,,,,,189,FCC,WROUGHT,FCC,2018
J7,10.1016/j.msea.2018.10.094,Co1 Cr1 Fe1 Mn1 Ni1,FCC,S,CR + A,0.5,,,T,-196.0,1692.0,,10.3,,,,,,,,,,,189,FCC,WROUGHT,FCC,2018
J8,10.1016/j.jallcom.2018.08.176,Al0.5 Cr0.5 Fe0.5 Ni1,FCC + BCC + B2,M,AC,,,,T,25.0,774.0,1357.0,6.4,,,,,,,,,,,199,other,CAST,,2018
J8,10.1016/j.jallcom.2018.08.176,Al0.429 Cr0.476 Fe0.476 Ni1,FCC + BCC + B2,M,AC,,,,T,25.0,610.0,1173.0,9.1,,,,,,,,,,,199,other,CAST,,2018
J8,10.1016/j.jallcom.2018.08.176,Al0.364 Cr0.455 Fe0.455 Ni1,FCC + BCC + B2,M,AC,,,,T,25.0,479.0,956.0,12.7,,,,,,,,,,,199,other,CAST,,2018
J8,10.1016/j.jallcom.2018.08.176,Al0.304 Cr0.435 Fe0.435 Ni1,FCC + BCC + B2,M,AC,,,,T,25.0,461.0,835.0,30.0,,,,,,,,,,,199,other,CAST,,2018
J8,10.1016/j.jallcom.2018.08.176,Al0.25 Cr0.417 Fe0.417 Ni1,FCC,S,AC,,,,T,25.0,441.0,757.0,45.0,,,,,,,,,,,199,FCC,CAST,FCC,2018
J10,10.1016/j.actamat.2018.12.015,Co1 Cr1 Ni1,FCC,S,CR + A,1.6,,468.0,T,25.0,1100.0,,23.0,,,,,,changed grain size,,,,,100,FCC,WROUGHT,FCC,2018
J10,10.1016/j.actamat.2018.12.015,Co1 Cr1 Ni1,FCC,S,CR + A,2.3,,326.0,T,,597.0,,53.0,,,,,,new data,,,,,100,FCC,WROUGHT,FCC,2018
J10,10.1016/j.actamat.2018.12.015,Co1 Cr1 Ni1,FCC,S,CR + A,24.0,,223.0,T,,346.0,,76.0,,,,,,new data,,,,,100,FCC,WROUGHT,FCC,2018
J11,10.1038/s41467-019-08460-2,Al0.476 Co0.476 Cr0.476 Fe0.476 Ni1,FCC + B2,M,CR + A,,,,T,25.0,1263.0,,21.4,,,,,,recorded ref value not true values; had to go to supplementary,,,,,107,other,WROUGHT,,
J11,10.1038/s41467-019-08460-2,Al0.476 Co0.476 Cr0.476 Fe0.476 Ni1,FCC + B2,M,CR + A,,,,T,25.0,1154.0,,25.0,,,,,,new values,,,,,107,other,WROUGHT,,
J11,10.1038/s41467-019-08460-2,Al0.476 Co0.476 Cr0.476 Fe0.476 Ni1,FCC + B2,M,CR + A,,,,T,25.0,1490.0,,16.0,,,,,,new values,,,,,107,other,WROUGHT,,
J12,10.1016/j.scriptamat.2018.11.042,Co1 Cr1 Fe1 Mn1 Ni1,FCC,S,AC,,,130.2,C,25.0,210.0,,57.0,,,,,,pulled ductility off plot,,,,,117,FCC,CAST,FCC,2018
J12,10.1016/j.scriptamat.2018.11.042,Co1 Cr1 Fe1 Mn1 Ni1,FCC,S,CR,,,394.1,C,25.0,1150.0,,6.0,,,,,,pulled ductility off plot,,,,,117,FCC,WROUGHT,FCC,2018
J12,10.1016/j.scriptamat.2018.11.042,Co1 Cr1 Fe1 Mn1 Ni1,FCC,S,CR + A,,,430.7,C,25.0,1300.0,,0.7,,,,,,pulled ductility off plot,,,,,117,FCC,WROUGHT,FCC,2018
J13,10.1016/j.jallcom.2018.10.230,Nb1 Ta1 Ti1 V1,BCC,S,SPS,24.0,,427.9,C,25.0,1108.0,,28.3,,,,,,Sintered @ 1500 C; pulled ductility off of plot,,,,,127,BCC,POWDER,BCC,2018
J13,10.1016/j.jallcom.2018.10.230,Nb1 Ta1 Ti1 V1,BCC,S,SPS,30.0,,444.3,C,25.0,1308.0,,27.9,,,,,,Sintered @ 1600 C; pulled ductility off of plot,,,,,127,BCC,POWDER,BCC,2018
J13,10.1016/j.jallcom.2018.10.230,Nb1 Ta1 Ti1 V1,BCC,S,SPS,38.0,,510.9,C,25.0,1373.0,,29.5,,,4800.0,,1900.0,Sintered @ 1700 C; pulled ductility off of plot,,,,,127,BCC,POWDER,BCC,2018
J14,10.1016/j.jmst.2018.09.068,Co1 Cr1 Fe1 Mn1 Ni1,FCC,S,CR + A,30.0,,,T,25.0,300.0,676.0,52.0,,,,,,changed ductility to engineering strain ,,,,,134,FCC,WROUGHT,FCC,2018
J14,10.1016/j.jmst.2018.09.068,Co1 Cr1 Fe1 Mn1 Ni1,FCC,S,CR + A,0.65,,,T,25.0,800.0,888.0,39.5,,,,,,changed ductility to engineering strain ,,,,,134,FCC,WROUGHT,FCC,2018
J15,10.1016/j.jallcom.2018.10.168,Co1 Cr1 Fe1 Mn1 Ni1,FCC + BCC,M,AC,0.4,,415.0,C,25.0,1314.0,,,20.3,,,,,,,,,,135,other,CAST,,2018
J15,10.1016/j.jallcom.2018.10.168,Al0.1 Co1 Cr1 Fe1 Mn1 Ni1,FCC + BCC,M,AC,,,432.0,C,25.0,1631.0,,,12.6,,,,,,,,,,135,other,CAST,,2018
J15,10.1016/j.jallcom.2018.10.168,Al0.3 Co1 Cr1 Fe1 Mn1 Ni1,FCC + BCC,M,AC,0.2,,511.0,C,25.0,1836.0,,,4.9,,,,,,,,,,135,other,CAST,,2018
J15,10.1016/j.jallcom.2018.10.168,Al0.5 Co1 Cr1 Fe1 Mn1 Ni1,FCC + BCC,M,AC,,,553.0,C,25.0,1932.0,,,3.8,,,,,,,,,,135,other,CAST,,2018
J15,10.1016/j.jallcom.2018.10.168,Al0.7 Co1 Cr1 Fe1 Mn1 Ni1,FCC + BCC,M,AC,0.2,,622.0,C,25.0,2230.0,,,1.69,,,,,,,,,,135,other,CAST,,2018
J15,10.1016/j.jallcom.2018.10.168,Al1 Co1 Cr1 Fe1 Mn1 Ni1,FCC + BCC,M,AC,,,684.0,C,25.0,,,,0,,,,,,,,,,135,other,CAST,,2018
J16,10.1007/s40843-018-9373-y,Co1 Cr1 Fe1 Ni1,FCC,S,A + HF,,,,T,20.0,446.0,664.0,63.0,,189.0,,,,,,,,,136,FCC,WROUGHT,FCC,
J16,10.1007/s40843-018-9373-y,Co1 Cr1 Fe1 Ni1,FCC,S,A + HF,,,,T,-73.0,488.0,790.0,72.0,,194.0,,,,,,,,,136,FCC,WROUGHT,FCC,
J16,10.1007/s40843-018-9373-y,Co1 Cr1 Fe1 Ni1,FCC,S,A + HF,,,,T,-196.0,590.0,1070.0,78.0,,204.0,,,,-796 corrected to -196,,,,,136,FCC,WROUGHT,FCC,
J16,10.1007/s40843-018-9373-y,Co1 Cr1 Fe1 Ni1,FCC,S,A + HF,,,,T,-223.0,,1152.0,68.6,,,,,,,,,,,136,FCC,WROUGHT,FCC,
J16,10.1007/s40843-018-9373-y,Co1 Cr1 Fe1 Ni1,FCC,S,A + HF,,,,T,-253.0,,1240.0,62.0,,,,,,,,,,,136,FCC,WROUGHT,FCC,
J16,10.1007/s40843-018-9373-y,Co1 Cr1 Fe1 Ni1,FCC,S,A + HF,,,,T,-268.8,680.0,1251.0,61.6,,221.0,,,,,,,,,136,FCC,WROUGHT,FCC,
J17,10.1016/j.matdes.2019.107698,Co1 Cr1 Fe1 Ni1,FCC,S,AC,,,94.7,,,,,,,,,,,Pulled hardness data off plot,,,,,137,FCC,CAST,FCC,2019
J17,10.1016/j.matdes.2019.107698,Al0.3 Co1 Cr1 Fe1 Ni1,FCC,S,AC,,,117.0,,,,,,,,,,,Pulled hardness data off plot,,,,,137,FCC,CAST,FCC,2019
J17,10.1016/j.matdes.2019.107698,Al0.6 Co1 Cr1 Fe1 Ni1,FCC + BCC + B2,M,AC,,,228.0,,,,,,,,,,,Pulled hardness data off plot,,,,,137,other,CAST,,2019
J17,10.1016/j.matdes.2019.107698,Al0.9 Co1 Cr1 Fe1 Ni1,FCC + BCC + B2,M,AC,,,511.0,,,,,,,,,,,Pulled hardness data off plot,,,,,137,other,CAST,,2019
J17,10.1016/j.matdes.2019.107698,Al0.9 Co1 Cr1 Fe1 Ni1 Ti0.5,BCC + B2 + Im,M,AC,,,623.0,,,,,,,,,,,Pulled hardness data off plot,,,,,137,other,CAST,,2019
J18,10.1016/j.jmst.2018.10.009,Co1 Cr1 Fe1 Mn1 Ni1,FCC,S,AC,,,,C,25.0,216.0,,,,,,,,,,,,,138,FCC,CAST,FCC,2018
J18,10.1016/j.jmst.2018.10.009,Co1 Cr1 Fe1 Mn1 Mo0.042 Ni1,FCC,S,AC,,,,C,25.0,225.0,,,,,,,,,,,,,138,FCC,CAST,FCC,2018
J18,10.1016/j.jmst.2018.10.009,Co1 Cr1 Fe1 Mn1 Mo0.087 Ni1,FCC + $\sigma$,M,AC,,,,C,25.0,330.0,,,,,,,,,,,,,138,other,CAST,,2018
J18,10.1016/j.jmst.2018.10.009,Co1 Cr1 Fe1 Mn1 Mo0.136 Ni1,FCC + $\sigma$,M,AC,,,,C,25.0,560.0,,,,,,,,,,,,,138,other,CAST,,2018
J18,10.1016/j.jmst.2018.10.009,Co1 Cr1 Fe1 Mn1 Mo0.19 Ni1,FCC + $\sigma$,M,AC,,,,C,25.0,765.0,,,,,,,,,,,,,138,other,CAST,,2018
J20,10.1016/j.scriptamat.2018.10.023,Al0.3 Co1 Cr1 Fe1 Ni1,FCC + L12,M,CR,,,,T,25.0,143.0,400.0,65.0,,,,,,,,,,,140,other,WROUGHT,,2018
J20,10.1016/j.scriptamat.2018.10.023,Al0.3 Co1 Cr1 Fe1 Ni1,FCC + L12,M,CR + A,,,,T,25.0,471.0,850.0,45.0,,,,,,,,,,,140,other,WROUGHT,,2018
J20,10.1016/j.scriptamat.2018.10.023,Al0.3 Co1 Cr1 Fe1 Ni1,FCC + B2 + $\sigma$,M,CR + A,,,,T,25.0,841.0,1050.0,35.0,,,,,,,,,,,140,other,WROUGHT,,2018
J20,10.1016/j.scriptamat.2018.10.023,Al0.3 Co1 Cr1 Fe1 Ni1,FCC + BCC + B2 + $\sigma$,M,CR + A,,,,T,25.0,161.0,1650.0,7.0,,,,,,,,,,,140,other,WROUGHT,,2018
J20,10.1016/j.scriptamat.2018.10.023,Al0.3 Co1 Cr1 Fe1 Ni1,FCC + BCC + B2 + $\sigma$,M,CR + A,,,,T,25.0,187.0,1850.0,5.0,,,,,,,,,,,140,other,WROUGHT,,2018
J21,10.1016/j.jallcom.2018.11.057,Al1 Co1 Cr1 Ni1,BCC + B2,M,AC,,,1183.0,C,25.0,1750.0,,16.7,,,,,,hardness units in GPA,,,,,141,other,CAST,,2018
J23,10.1016/j.msea.2019.01.050,Co1 Cr1 Fe1 Mn1 Ni1,FCC,S,CR + A,7.9,,,T,25.0,378.7,700.1,54.0,,,,,,,,,,,142,FCC,WROUGHT,FCC,2019
J23,10.1016/j.msea.2019.01.050,C0.5 Co1 Cr1 Fe1 Mn1 Ni1,FCC,M,CR + A,4.7,,,T,25.0,520.9,791.4,40.3,,,,,36380.0,Note: these alloys were intentionally designed to contain carbon,,,,,142,FCC,WROUGHT,FCC,2019
J23,10.1016/j.msea.2019.01.050,C1 Co1 Cr1 Fe1 Mn1 Ni1,FCC,M,CR + A,3.5,,,T,25.0,643.8,887.6,31.9,,,,,30300.0,Note: these alloys were intentionally designed to contain carbon,,,,,142,FCC,WROUGHT,FCC,2019
J24,10.1016/j.ijplas.2018.10.005,Co1 Cr0.588 Fe0.176 Mo0.176 Ni1,FCC,S,CR,,,,T,25.0,,,8.0,,,,,,,,,,,143,FCC,WROUGHT,FCC,2018
J24,10.1016/j.ijplas.2018.10.005,Co1 Cr0.588 Fe0.176 Mo0.176 Ni1,FCC,S,CR + A,0.7,,,T,25.0,,,14.0,,,,,,extracted data from plots,,,,,143,FCC,WROUGHT,FCC,2018
J24,10.1016/j.ijplas.2018.10.005,Co1 Cr0.588 Fe0.176 Mo0.176 Ni1,FCC,S,CR + A,0.8,,,T,25.0,1100.0,1300.0,32.0,,,,,,extracted data from plots,,,,,143,FCC,WROUGHT,FCC,2018
J24,10.1016/j.ijplas.2018.10.005,Co1 Cr0.588 Fe0.176 Mo0.176 Ni1,FCC,S,CR + A,1.2,,,T,25.0,950.0,,36.0,,,,,,extracted data from plots,,,,,143,FCC,WROUGHT,FCC,2018
J24,10.1016/j.ijplas.2018.10.005,Co1 Cr0.588 Fe0.176 Mo0.176 Ni1,FCC,S,CR + A,3.2,,,T,25.0,649.0,,42.0,,,,,,extracted data from plots,,,,,143,FCC,WROUGHT,FCC,2018
J24,10.1016/j.ijplas.2018.10.005,Co1 Cr0.588 Fe0.176 Mo0.176 Ni1,FCC,S,CR + A,18.2,,,T,25.0,439.0,,63.0,,,,,,extracted data from plots,,,,,143,FCC,WROUGHT,FCC,2018
J24,10.1016/j.ijplas.2018.10.005,Co1 Cr0.588 Fe0.176 Mo0.176 Ni1,FCC,S,CR + A,94.1,,,T,25.0,309.0,,82.0,,,,,,extracted data from plots,,,,,143,FCC,WROUGHT,FCC,2018
J25,10.1016/j.jallcom.2018.08.115,Co1 Cr1 Fe1 Mn1 Ni1,FCC,S,CR + A,,,,T,25.0,386.2,666.3,57.5,,,,,,added total elongation ,,,,,144,FCC,WROUGHT,FCC,2018
J26,10.1016/j.matchemphys.2018.09.033,Cr1 Cu1 Fe1 Mn1 Ni1,FCC1 + FCC2 + BCC ,M,AC,,,,T,25.0,628.0,950.0,14.5,,,,,,not sure where original data was from... extracted from plot,,,,,145,other,CAST,,2018
J26,10.1016/j.matchemphys.2018.09.033,Cr1 Cu1 Fe1 Mn1 Ni1,FCC1 + FCC2 + BCC ,M,A,,,,T,25.0,545.0,690.0,5.0,,,,,,not sure where original data was from... extracted from plot,,,,,145,other,ANNEAL,,2018
J26,10.1016/j.matchemphys.2018.09.033,Cr1 Cu1 Fe1 Mn1 Ni1,FCC1 + FCC2 + BCC ,M,A,,,,T,25.0,534.0,682.0,5.2,,,,,,not sure where original data was from... extracted from plot,,,,,145,other,ANNEAL,,2018
J26,10.1016/j.matchemphys.2018.09.033,Cr1 Cu1 Fe1 Mn1 Ni1,FCC1 + FCC2 + BCC ,M,A,,,,T,25.0,525.0,680.0,4.3,,,,,,not sure where original data was from... extracted from plot,,,,,145,other,ANNEAL,,2018
J26,10.1016/j.matchemphys.2018.09.033,Cr1 Cu1 Fe1 Mn1 Ni1,FCC1 + FCC2 + BCC ,M,A,,,,T,25.0,517.0,677.0,4.6,,,,,,not sure where original data was from... extracted from plot,,,,,145,other,ANNEAL,,2018
J26,10.1016/j.matchemphys.2018.09.033,Cr1 Cu1 Fe1 Mn1 Ni1,FCC1 + FCC2 + BCC ,M,A,,,,T,25.0,502.0,671.0,4.9,,,,,,not sure where original data was from... extracted from plot,,,,,145,other,ANNEAL,,2018
J27,10.1016/j.jallcom.2018.11.318,Cr1 Mo1 Nb1 Ta1 V1 W1,BCC + Laves + oxide,M,SPS,0.54,,1072.0,C,25.0,,,,,,7946.0,,,"Sintered @ 1400 C, HV is MPa units divided by 10",,,,,146,other,POWDER,,2018
J27,10.1016/j.jallcom.2018.11.318,Cr1 Mo1 Nb1 Ta1 V1 W1,BCC + Laves + oxide,M,SPS,1.24,,1010.0,C,25.0,3416.0,,5.3,,,7946.0,,,"Sintered @ 1500 C,  HV is MPa units divided by 10",,,,,146,other,POWDER,,2018
J27,10.1016/j.jallcom.2018.11.318,Cr1 Mo1 Nb1 Ta1 V1 W1,BCC + Laves + oxide,M,SPS,5.01,,991.3,C,25.0,3410.0,,2.0,,,7946.0,,,"Sintered @ 1600 C,  HV is MPa units divided by 10",,,,,146,other,POWDER,,2018
J27,10.1016/j.jallcom.2018.11.318,Cr1 Mo1 Nb1 Ta1 V1 W1,BCC + Laves + oxide,M,SPS,10.8,,988.3,C,25.0,3338.0,,1.9,,,7946.0,,,"Sintered @ 1700 C,  HV is MPa units divided by 10",,,,,146,other,POWDER,,2018
J27,10.1016/j.jallcom.2018.11.318,Mo1 Nb1 Ta1 V1 W1,,,SPS,,,1010.0,C,25.0,3416.0,,5.3,,,,,,,,,,,146,other,POWDER,,2018
J27,10.1016/j.jallcom.2018.11.318,Mo1 Nb1 Ta1 V1 W1,,,SPS,,,,C,25.0,2612.0,,8.8,,,,,,these should be attributed to their actual sources,,,,,146,other,POWDER,,2018
J27,10.1016/j.jallcom.2018.11.318,Mo1 Nb1 Ta1 V1 W1,,,AC,,,535.3,C,25.0,1246.0,,1.7,,,,,,,,,,,146,other,CAST,,2018
J27,10.1016/j.jallcom.2018.11.318,Mo1 Nb1 Ta1 Ti1 W1,,,AC,,,498.73,C,25.0,1343.0,,14.1,,,,,,,,,,,146,other,CAST,,2018
J27,10.1016/j.jallcom.2018.11.318,Mo1 Nb1 Ta1 Ti1 V1 W1,,,AC,,,510.3,C,25.0,1515.0,,10.6,,,,,,,,,,,146,other,CAST,,2018
J27,10.1016/j.jallcom.2018.11.318,Cr1 Mo1 Nb1 Ta1 V1 W1,,,AC,,,704.6,C,25.0,,,,,,,,,,,,,,146,other,CAST,,2018
J27,10.1016/j.jallcom.2018.11.318,Mo1 Nb1 Ta1 Ti1 Zr1,,,AC,,,499.6,C,25.0,1390.0,,6.0,,,,,,,,,,,146,other,CAST,,2018
J27,10.1016/j.jallcom.2018.11.318,Cr1 Mo0.5 Nb1 Ta0.5 Ti1 Zr1,,,AC,,,539.2,C,25.0,1595.0,,5.0,,,,,,,,,,,146,other,CAST,,2018
J27,10.1016/j.jallcom.2018.11.318,Al1 Nb1 Ti1 V1,,,AC,,,440.0,C,25.0,1020.0,,5.0,,,,,,,,,,,146,other,CAST,,2018
J27,10.1016/j.jallcom.2018.11.318,Hf1 Mo1 Nb1 Ta1 Ti1 Zr1,,,AC,,,505.0,C,25.0,1512.0,,10.0,,,,,,,,,,,146,other,CAST,,2018
J28,10.1016/j.vacuum.2018.12.009,Co1 Cr1 Cu1 Fe1 Ni1,FCC + B2,M,AC,,,45.2,,,,,,,,,,,note this is rockwell hardness ,,,,,147,other,CAST,,2018
J28,10.1016/j.vacuum.2018.12.009,Al0.5 Co1 Cr1 Cu1 Fe1 Ni1,FCC,S,AC,,,48.8,,,,,,,,,,,note this is rockwell hardness ,,,,,147,FCC,CAST,FCC,2018
J28,10.1016/j.vacuum.2018.12.009,Al1 Co1 Cr1 Cu1 Fe1 Ni1,FCC + BCC,M,AC,,,73.8,,,,,,,,,,,note this is rockwell hardness ,,,,,147,other,CAST,,2018
J28,10.1016/j.vacuum.2018.12.009,Al1 Co0.667 Cr0.667 Cu0.667 Fe0.667 Ni0.667,FCC + BCC,M,AC,,,75.1,,,,,,,,,,,note this is rockwell hardness ,,,,,147,other,CAST,,2018
J28,10.1016/j.vacuum.2018.12.009,Al1 Co0.5 Cr0.5 Cu0.5 Fe0.5 Ni0.5,FCC + BCC,M,AC,,,77.5,,,,,,,,,,,note this is rockwell hardness ,,,,,147,other,CAST,,2018
J29,10.1002/adma.201807142,Co1 Ni1 V1,,,CR+A,2.0,,,T,25.0,991.0,1359.0,38.0,,,,,,changed processing from A to CR + A,,,,,148,other,WROUGHT,,
J29,10.1002/adma.201807142,Co1 Ni1 V1,,S,CR+A,5.6,,,T,25.0,767.0,1224.0,46.0,,,,,,changed processing from A to CR + A,,,,,148,other,WROUGHT,,
J29,10.1002/adma.201807142,Co1 Ni1 V1,,,CR+A,18.7,,,T,25.0,602.0,1123.0,51.0,,,,,,changed processing from A to CR + A,,,,,148,other,WROUGHT,,
J29,10.1002/adma.201807142,Co1 Ni1 V1,,,CR+A,27.8,,,T,25.0,517.0,1049.0,55.0,,,,,,changed processing from A to CR + A,,,,,148,other,WROUGHT,,
J29,10.1002/adma.201807142,Co1 Ni1 V1,,,CR+A,122.2,,,T,25.0,461.0,886.0,58.0,,,,,,changed processing from A to CR + A,,,,,148,other,WROUGHT,,
J30,10.1016/j.actamat.2018.12.010,Al0.3 Co1 Cr1 Fe1 Ni1,FCC + B2 + $\sigma$,M,CR+A,,,,T,25.0,840.0,1039.0,32.0,,,,,,,,,,,150,other,WROUGHT,,2018
J30,10.1016/j.actamat.2018.12.010,Al0.3 Co1 Cr1 Fe1 Ni1,FCC,M,CR+A,,,,T,25.0,159.0,410.0,65.0,,,,,,,,,,,150,FCC,WROUGHT,FCC,2018
J31,10.1016/j.scriptamat.2018.09.008,Al0.544 C0.001 Co0.69 Fe1 Ni0.69,B2 + L12,M,AC,,,,C,25.0,1202.0,,32.6,,,,,11067.0,Note: this alloy was intentionally designed to contain carbon,,,,,151,other,CAST,,2018
J32,10.1016/j.matchar.2018.07.015,Hf1 Nb1 Ta1 Ti1 Zr1,BCC,S,CR+A,,,,,,,,,,,,,,Skipped,,,,,152,BCC,WROUGHT,BCC,2018
J33,10.1080/21663831.2018.1553803,Co0.5 Cr0.5 Fe1 Ni1,FCC,S,CR+A,14.9,,,T,25.0,214.0,612.0,77.3,,,,,,changed processing from A to CR + A; added grain size,,,,,153,FCC,WROUGHT,FCC,2018
J33,10.1080/21663831.2018.1553803,Co0.875 Cr0.625 Fe1 Ni1,FCC,S,CR+A,11.6,,,T,25.0,241.0,721.0,96.2,,,,,,changed processing from A to CR + A; added grain size,,,,,153,FCC,WROUGHT,FCC,2018
J33,10.1080/21663831.2018.1553803,Co1 Cr0.556 Fe0.667 Ni0.667,FCC,S,CR+A,10.5,,,T,25.0,299.0,841.0,76.1,,,,,,changed processing from A to CR + A; added grain size,,,,,153,FCC,WROUGHT,FCC,2018
J33,10.1080/21663831.2018.1553803,Co1 Cr0.455 Fe0.364 Ni0.364,FCC  + HCP,M,CR+A,5.6,,,T,25.0,392.0,746.0,20.3,,,,,,changed processing from A to CR + A; added grain size,,,,,153,other,WROUGHT,,2018
J33,10.1080/21663831.2018.1553803,Co1 Cr0.385 Fe0.154 Ni0.154,FCC  + HCP,M,CR+A,6.2,,,T,25.0,482.0,857.0,13.3,,,,,,changed processing from A to CR + A; added grain size,,,,,153,other,WROUGHT,,2018
J34,10.1016/j.intermet.2019.04.003,Hf1 Nb1 Ti1 Zr1,BCC,S,CR+A,,,,,,,,,,69.7,,,,Youngs Modulus data,,,,,154,BCC,WROUGHT,BCC,2019
J34,10.1016/j.intermet.2019.04.003,Hf1 Nb1 Ta1 Ti1 Zr1,,,,,,,,,,,,,78.5,,,,,,,,,154,other,,,2019
J34,10.1016/j.intermet.2019.04.003,Mo1 Nb1 Ta1 Ti1 W1,,,,,,,,,,,,,156.0,,,,,,,,,154,other,,,2019
J34,10.1016/j.intermet.2019.04.003,Mo1 Nb1 Ta1 Ti1 V1 W1,,,,,,,,,,,,,164.0,,,,,,,,,154,other,,,2019
J34,10.1016/j.intermet.2019.04.003,Co1 Cr1 Fe1 Mn1 Ni1,,,,,,,,,,,,,201.6,,,,,,,,,154,other,,,2019
J34,10.1016/j.intermet.2019.04.003,Co1 Cr1 Fe1 Mn1 Ni1,,,,,,,,,,,,,202.0,,,,,,,,,154,other,,,2019
J34,10.1016/j.intermet.2019.04.003,Co1 Cr1 Fe1 Mn1 Ni1,,,,,,,,,,,,,202.2,,,,,,,,,154,other,,,2019
J34,10.1016/j.intermet.2019.04.003,Co1 Cr1 Fe1 Ni1,,,,,,,,,,,,,215.0,,,,,,,,,154,other,,,2019
J34,10.1016/j.intermet.2019.04.003,Co1 Cr1 Fe1 Ni1,,,,,,,,,,,,,204.0,,,,,,,,,154,other,,,2019
J34,10.1016/j.intermet.2019.04.003,Co1 Fe1 Mn1 Ni1,,,,,,,,,,,,,187.9,,,,,,,,,154,other,,,2019
J34,10.1016/j.intermet.2019.04.003,Co1 Fe1 Mn1 Ni1,,,,,,,,,,,,,195.0,,,,,,,,,154,other,,,2019
J34,10.1016/j.intermet.2019.04.003,Co1 Fe1 Ni1,,,,,,,,,,,,,162.0,,,,,,,,,154,other,,,2019
J34,10.1016/j.intermet.2019.04.003,Co1 Fe1 Ni1,,,,,,,,,,,,,174.0,,,,,,,,,154,other,,,2019
J34,10.1016/j.intermet.2019.04.003,Co1 Cr1 Ni1,,,,,,,,,,,,,226.2,,,,,,,,,154,other,,,2019
J34,10.1016/j.intermet.2019.04.003,Co1 Cr1 Ni1,,,,,,,,,,,,,222.0,,,,,,,,,154,other,,,2019
J34,10.1016/j.intermet.2019.04.003,Co1 Cr1 Ni1,,,,,,,,,,,,,229.0,,,,,,,,,154,other,,,2019
J34,10.1016/j.intermet.2019.04.003,Co1 Cr1 Ni1,,,,,,,,,,,,,234.0,,,,,,,,,154,other,,,2019
J34,10.1016/j.intermet.2019.04.003,Fe1 Mn1 Ni1,,,,,,,,,,,,,181.0,,,,,,,,,154,other,,,2019
J34,10.1016/j.intermet.2019.04.003,Co1 Mn1 Ni1,,,,,,,,,,,,,189.4,,,,,,,,,154,other,,,2019
J34,10.1016/j.intermet.2019.04.003,Co1 Ni1,,,,,,,,,,,,,216.7,,,,,,,,,154,other,,,2019