REFERENCE: tag,REFERENCE: doi,FORMULA,PROPERTY: Type of phases,PROPERTY: Single/Multiphase,PROPERTY: synthesis method,PROPERTY: grain size ($\mu$m),PROPERTY: ROM Density (g/cm$^3$),PROPERTY: HV,PROPERTY: Type of test,PROPERTY: Test temperature ($^\circ$C),PROPERTY: YS (MPa),PROPERTY: UTS (MPa),PROPERTY: Elongation (%),PROPERTY: Elongation plastic (%),PROPERTY: Young modulus (GPa),PROPERTY: O content (wppm),PROPERTY: N content (wppm),PROPERTY: C content (wppm),REFERENCE: comment,"Internal Reference # (J4, J90)","J4, J90 Original DOI",PROPERTY: Exp. Density (g/cm$^3$),Unnamed: 22,IDENTIFIER: Reference ID,PROPERTY: BCC/FCC/other,PROPERTY: Processing method,PROPERTY: Microstructure,REFERENCE: year
J61,10.1016/j.jallcom.2019.07.100,Al1 C0.3 Co1 Cr1 Fe1 Ni1,,,,,,,C,25.0,867.0,,7.82,,,,,,"Extracted Engineering Values from Table 4, comes from multiple other references",,,,,181,other,,,2019
J61,10.1016/j.jallcom.2019.07.100,Al1 C0.4 Co1 Cr1 Fe1 Ni1,,,,,,,C,25.0,1056.0,,6.67,,,,,,"Extracted Engineering Values from Table 4, comes from multiple other references",,,,,181,other,,,2019
J61,10.1016/j.jallcom.2019.07.100,Al1 C0.5 Co1 Cr1 Fe1 Ni1,,,,,,,C,25.0,1060.0,,5.6,,,,,,"Extracted Engineering Values from Table 4, comes from multiple other references",,,,,181,other,,,2019
J61,10.1016/j.jallcom.2019.07.100,Al1 Co1 Cr1 Fe1 Ni1,,,,,,,C,25.0,1300.0,,24.2,,,,,,"Extracted Engineering Values from Table 4, comes from multiple other references",,,,,181,other,,,2019
J61,10.1016/j.jallcom.2019.07.100,Al0.8 Co1 Cr1 Fe1 Ni1 Ti0.2,,,,,,,C,25.0,968.0,,30.1,,,,,,"Extracted Engineering Values from Table 4, comes from multiple other references",,,,,181,other,,,2019
J61,10.1016/j.jallcom.2019.07.100,Al0.5 Co1 Cr1 Fe1 Ni1 Ti0.5,,,,,,,C,25.0,1100.0,,27.5,,,,,,"Extracted Engineering Values from Table 4, comes from multiple other references",,,,,181,other,,,2019
J61,10.1016/j.jallcom.2019.07.100,Al1 Co1 Cu1 Fe1 Ni1,,,,,,,C,25.0,1060.0,,19.1,,,,,,"Extracted Engineering Values from Table 4, comes from multiple other references",,,,,181,other,,,2019
J61,10.1016/j.jallcom.2019.07.100,Al1 Co1 Cr1 Cu1 Fe1 Ni1,,,,,,,C,25.0,1285.0,,24.6,,,,,,"Extracted Engineering Values from Table 4, comes from multiple other references",,,,,181,other,,,2019
J61,10.1016/j.jallcom.2019.07.100,Al1 Co1 Cu1 Fe1 Ni1 Ti1,,,,,,,C,25.0,1612.0,,12.8,,,,,,"Extracted Engineering Values from Table 4, comes from multiple other references",,,,,181,other,,,2019
J61,10.1016/j.jallcom.2019.07.100,Al1 Co1 Cr1 Cu1 Fe1 Ni1 Ti1,,,,,,,C,25.0,1523.0,,8.1,,,,,,"Extracted Engineering Values from Table 4, comes from multiple other references",,,,,181,other,,,2019
J61,10.1016/j.jallcom.2019.07.100,Al1 Cr1 Fe1 Ni1,,,,,,,C,25.0,1271.0,,14.0,,,,,,"Extracted Engineering Values from Table 4, comes from multiple other references",,,,,181,other,,,2019
J61,10.1016/j.jallcom.2019.07.100,Al1 Co0.25 Cr1 Fe1 Ni1,,,,,,,C,25.0,1363.0,,19.0,,,,,,"Extracted Engineering Values from Table 4, comes from multiple other references",,,,,181,other,,,2019
J61,10.1016/j.jallcom.2019.07.100,Al1 Co0.5 Cr1 Fe1 Ni1,,,,,,,C,25.0,1349.0,,20.0,,,,,,"Extracted Engineering Values from Table 4, comes from multiple other references",,,,,181,other,,,2019
J61,10.1016/j.jallcom.2019.07.100,Al1 Co0.75 Cr1 Fe1 Ni1,,,,,,,C,25.0,1331.0,,20.0,,,,,,"Extracted Engineering Values from Table 4, comes from multiple other references",,,,,181,other,,,2019
J61,10.1016/j.jallcom.2019.07.100,Al1 Co1 Cr1 Fe1 Ni1,,,,,,,C,25.0,1313.0,,19.0,,,,,,"Extracted Engineering Values from Table 4, comes from multiple other references",,,,,181,other,,,2019
J61,10.1016/j.jallcom.2019.07.100,Co1 Cr1 Fe1 Mn1,,,,,,,C,25.0,338.0,,4.3,,,,,,"Extracted Engineering Values from Table 4, comes from multiple other references",,,,,181,other,,,2019
J61,10.1016/j.jallcom.2019.07.100,Al1 Co1 Cr1 Fe1 Ni1 Ti0.5,,,,,,,C,25.0,2260.0,,23.3,,,,,,"Extracted Engineering Values from Table 4, comes from multiple other references",,,,,181,other,,,2019
J61,10.1016/j.jallcom.2019.07.100,Al1 Co1 Cr1 Fe1 Ni1 Ti1,,,,,,,C,25.0,1860.0,,8.8,,,,,,"Extracted Engineering Values from Table 4, comes from multiple other references",,,,,181,other,,,2019
J61,10.1016/j.jallcom.2019.07.100,Al0.667 Co0.667 Cr0.667 Fe0.667 Ni0.667 Ti1,,,,,,,C,25.0,2220.0,,5.3,,,,,,"Extracted Engineering Values from Table 4, comes from multiple other references",,,,,181,other,,,2019
J63,10.1016/j.jallcom.2019.06.301,Al1 Co1 Cr1 Fe1 Ni1,FCC + BCC,M,GA+A,,,,,,,,,,,,,,Gas Atomization,,,,,182,other,POWDER,,2019
J64,10.1016/j.jallcom.2019.06.138,Hf1 Nb1 Ta1 Ti1 Zr1,BCC + Laves,M,AC,,,,C,25.0,929.0,,50.0,,,,,,Added  symbol to values to corresponding values according to Table 3; comes from a different reference,,,,,183,other,CAST,,2019
J64,10.1016/j.jallcom.2019.06.138,Hf1 Nb1 Ta1 Ti1 W1 Zr1,BCC + Laves,M,AC,29.4,,,C,25.0,1550.0,,26.3,,,,,,,,,,,183,other,CAST,,2019
J64,10.1016/j.jallcom.2019.06.138,Hf1 Mo1 Nb1 Ta1 Ti1 W1 Zr1,BCC + Laves,M,AC,31.7,,,C,25.0,1637.0,,15.5,,,,,,,,,,,183,other,CAST,,2019
J64,10.1016/j.jallcom.2019.06.138,Hf1 Nb1 Ta1 Ti1 Zr1,BCC + Laves,M,AC,,,,C,800.0,535.0,,40.0,,,,,,comes from a different reference,,,,,183,other,CAST,,2019
J64,10.1016/j.jallcom.2019.06.138,Hf1 Nb1 Ta1 Ti1 W1 Zr1,BCC + Laves,M,AC,29.4,,,C,800.0,577.0,,35.0,,,,,,,,,,,183,other,CAST,,2019
J64,10.1016/j.jallcom.2019.06.138,Hf1 Mo1 Nb1 Ta1 Ti1 W1 Zr1,BCC + Laves,M,AC,31.7,,,C,800.0,1065.0,,35.0,,,,,,,,,,,183,other,CAST,,2019
J64,10.1016/j.jallcom.2019.06.138,Hf1 Nb1 Ta1 Ti1 Zr1,BCC + Laves,M,AC,,,,C,1000.0,295.0,,50.0,,,,,,comes from a different reference,,,,,183,other,CAST,,2019
J64,10.1016/j.jallcom.2019.06.138,Hf1 Nb1 Ta1 Ti1 W1 Zr1,BCC + Laves,M,AC,29.4,,,C,1000.0,409.0,,35.0,,,,,,,,,,,183,other,CAST,,2019
J64,10.1016/j.jallcom.2019.06.138,Hf1 Mo1 Nb1 Ta1 Ti1 W1 Zr1,BCC + Laves,M,AC,31.7,,,C,1000.0,736.0,,35.0,,,,,,,,,,,183,other,CAST,,2019
J64,10.1016/j.jallcom.2019.06.138,Hf1 Nb1 Ta1 Ti1 Zr1,BCC + Laves,M,AC,,,,C,1200.0,92.0,,50.0,,,,,,comes from a different reference,,,,,183,other,CAST,,2019
J64,10.1016/j.jallcom.2019.06.138,Hf1 Nb1 Ta1 Ti1 W1 Zr1,BCC + Laves,M,AC,29.4,,,C,1200.0,345.0,,35.0,,,,,,,,,,,183,other,CAST,,2019
J64,10.1016/j.jallcom.2019.06.138,Hf1 Mo1 Nb1 Ta1 Ti1 W1 Zr1,BCC + Laves,M,AC,31.7,,,C,1200.0,703.0,,35.0,,,,,,,,,,,183,other,CAST,,2019
J65,10.1007/s12598-019-01310-6,Nb1 Ti1 Zr1,BCC,S,AC,,,372.0,C,25.0,1223.0,,48.0,,,,,,,,,,,184,BCC,CAST,BCC,
J65,10.1007/s12598-019-01310-6,Hf1 Nb1 Ti1 Zr1,BCC,S,AC,,,351.0,C,25.0,1000.0,,52.0,,,,,,,,,,,184,BCC,CAST,BCC,
J65,10.1007/s12598-019-01310-6,Nb1 Ti1 Zr1,BCC,S,A,300.0,,,,,,,,,,,,,,,,,,184,BCC,ANNEAL,BCC,
J65,10.1007/s12598-019-01310-6,Hf1 Nb1 Ti1 Zr1,BCC,S,A,50.0,,,,,,,,,,,,,,,,,,184,BCC,ANNEAL,BCC,
J65,10.1007/s12598-019-01310-6,Nb1 Ti1 Zr1,BCC,S,AC,,,,C,1073.0,462.0,,51.0,,,,,,Added total elongation values according to Fig 6,,,,,184,BCC,CAST,BCC,
J65,10.1007/s12598-019-01310-6,Hf1 Nb1 Ti1 Zr1,BCC,S,AC,,,,C,1073.0,303.0,,51.0,,,,,,Added total elongation values according to Fig 6,,,,,184,BCC,CAST,BCC,
J65,10.1007/s12598-019-01310-6,Nb1 Ti1 Zr1,BCC,S,AC,,,,C,1273.0,218.0,,51.0,,,,,,Added total elongation values according to Fig 6,,,,,184,BCC,CAST,BCC,
J65,10.1007/s12598-019-01310-6,Hf1 Nb1 Ti1 Zr1,BCC,S,AC,,,,C,1273.0,154.0,,51.0,,,,,,Added total elongation values according to Fig 6,,,,,184,BCC,CAST,BCC,
J66,10.1016/j.intermet.2019.106550,Co1 Cr1 Fe1 Ni1,FCC,S,AC,,,168.9,C,25.0,163.0,,80.0,,,,,,,,,,,185,FCC,CAST,FCC,2019
J66,10.1016/j.intermet.2019.106550,Co1 Cr1 Fe1 Ni1 W0.2,FCC,S,AC,,,244.0,C,25.0,335.0,,52.0,,,,,,,,,,,185,FCC,CAST,FCC,2019
J66,10.1016/j.intermet.2019.106550,Co1 Cr1 Fe1 Ni1 W0.5,FCC + $\mu$,M,AC,,,357.9,C,25.0,556.0,,35.6,,,,,,,,,,,185,other,CAST,,2019
J67,10.1007/s40195-019-00935-x,Cr1 Fe1 Mo1 Nb1 V1,BCC + Laves,M,AC,,,826.0,C,25.0,2663.0,,2.7,,,,,,added hardness vickers from text,,,,,186,other,CAST,,
J67,10.1007/s40195-019-00935-x,Cr1 Fe1 Mo1 Nb1 Ti1,BCC + Laves,M,AC,,,792.0,C,25.0,1647.0,,0.9,,,,,,added hardness vickers from text,,,,,186,other,CAST,,
J67,10.1007/s40195-019-00935-x,Fe1 Mo1 Nb1 Ti1 V1,BCC + B2,M,AC,,,699.0,C,25.0,1707.0,,1.7,,,,,,added hardness vickers from text,,,,,186,other,CAST,,
J68,10.1016/j.matchar.2019.109792,Al0.15 Cr0.5 Cu0.25 Fe0.5 Ni1,FCC,S,CR + A,,,107.0,T,62.0,169.0,,98.0,,16.6,,,,,,,,,187,FCC,WROUGHT,FCC,2019
J68,10.1016/j.matchar.2019.109792,Al0.15 Cr0.5 Cu0.25 Fe0.5 Ni1,FCC + L12,M,CR + A,,,209.0,T,350.0,642.0,,73.0,,47.0,,,,,,,,,187,other,WROUGHT,,2019
J68,10.1016/j.matchar.2019.109792,Al0.15 Cr0.5 Cu0.25 Fe0.5 Ni1,FCC + L12 + M23C6,M,CR + A,,,321.0,T,535.0,904.0,,39.0,,35.2,,,,,,,,,187,other,WROUGHT,,2019
J68,10.1016/j.matchar.2019.109792,Al0.15 Cr0.5 Cu0.25 Fe0.5 Ni1,FCC + L12 + M23C6,M,CR + A,,,159.0,T,255.0,584.0,,88.0,,51.4,,,,,,,,,187,other,WROUGHT,,2019
J69,10.1016/j.jallcom.2019.05.322,Hf1 Nb1 Ta1 Ti1 Zr1,BCC,S,CR + A,60.0,,,,20.0,,,,,88.9,,,,Paper focused on Young's Modulus,,,,,188,BCC,WROUGHT,BCC,2019
J69,10.1016/j.jallcom.2019.05.322,Hf1 Nb1 Ta1 Ti1 Zr1,BCC,S,CR + A,60.0,,,,40.0,,,,,88.6,,,,,,,,,188,BCC,WROUGHT,BCC,2019
J69,10.1016/j.jallcom.2019.05.322,Hf1 Nb1 Ta1 Ti1 Zr1,BCC,S,CR + A,60.0,,,,60.0,,,,,88.4,,,,,,,,,188,BCC,WROUGHT,BCC,2019
J69,10.1016/j.jallcom.2019.05.322,Hf1 Nb1 Ta1 Ti1 Zr1,BCC,S,CR + A,60.0,,,,80.0,,,,,88.1,,,,,,,,,188,BCC,WROUGHT,BCC,2019
J69,10.1016/j.jallcom.2019.05.322,Hf1 Nb1 Ta1 Ti1 Zr1,BCC,S,CR + A,60.0,,,,100.0,,,,,87.9,,,,,,,,,188,BCC,WROUGHT,BCC,2019
J69,10.1016/j.jallcom.2019.05.322,Hf1 Nb1 Ta1 Ti1 Zr1,BCC,S,CR + A,60.0,,,,120.0,,,,,87.7,,,,,,,,,188,BCC,WROUGHT,BCC,2019
J69,10.1016/j.jallcom.2019.05.322,Hf1 Nb1 Ta1 Ti1 Zr1,BCC,S,CR + A,60.0,,,,140.0,,,,,87.5,,,,,,,,,188,BCC,WROUGHT,BCC,2019
J69,10.1016/j.jallcom.2019.05.322,Hf1 Nb1 Ta1 Ti1 Zr1,BCC,S,CR + A,60.0,,,,160.0,,,,,87.3,,,,,,,,,188,BCC,WROUGHT,BCC,2019
J69,10.1016/j.jallcom.2019.05.322,Hf1 Nb1 Ta1 Ti1 Zr1,BCC,S,CR + A,60.0,,,,180.0,,,,,87.1,,,,,,,,,188,BCC,WROUGHT,BCC,2019
J69,10.1016/j.jallcom.2019.05.322,Hf1 Nb1 Ta1 Ti1 Zr1,BCC,S,CR + A,60.0,,,,200.0,,,,,86.9,,,,,,,,,188,BCC,WROUGHT,BCC,2019
J69,10.1016/j.jallcom.2019.05.322,Hf1 Nb1 Ta1 Ti1 Zr1,BCC,S,CR + A,60.0,,,,220.0,,,,,86.7,,,,,,,,,188,BCC,WROUGHT,BCC,2019
J69,10.1016/j.jallcom.2019.05.322,Hf1 Nb1 Ta1 Ti1 Zr1,BCC,S,CR + A,60.0,,,,240.0,,,,,86.5,,,,,,,,,188,BCC,WROUGHT,BCC,2019
J69,10.1016/j.jallcom.2019.05.322,Hf1 Nb1 Ta1 Ti1 Zr1,BCC,S,CR + A,60.0,,,,260.0,,,,,86.3,,,,,,,,,188,BCC,WROUGHT,BCC,2019
J69,10.1016/j.jallcom.2019.05.322,Hf1 Nb1 Ta1 Ti1 Zr1,BCC,S,CR + A,60.0,,,,280.0,,,,,86.1,,,,,,,,,188,BCC,WROUGHT,BCC,2019
J69,10.1016/j.jallcom.2019.05.322,Hf1 Nb1 Ta1 Ti1 Zr1,BCC,S,CR + A,60.0,,,,300.0,,,,,85.8,,,,,,,,,188,BCC,WROUGHT,BCC,2019
J69,10.1016/j.jallcom.2019.05.322,Hf1 Nb1 Ta1 Ti1 Zr1,BCC,S,CR + A,60.0,,,,320.0,,,,,85.5,,,,,,,,,188,BCC,WROUGHT,BCC,2019
J69,10.1016/j.jallcom.2019.05.322,Hf1 Nb1 Ta1 Ti1 Zr1,BCC,S,CR + A,60.0,,,,340.0,,,,,85.2,,,,,,,,,188,BCC,WROUGHT,BCC,2019
J69,10.1016/j.jallcom.2019.05.322,Hf1 Nb1 Ta1 Ti1 Zr1,BCC,S,CR + A,60.0,,,,360.0,,,,,84.9,,,,,,,,,188,BCC,WROUGHT,BCC,2019
J69,10.1016/j.jallcom.2019.05.322,Hf1 Nb1 Ta1 Ti1 Zr1,BCC,S,CR + A,60.0,,,,380.0,,,,,84.5,,,,,,,,,188,BCC,WROUGHT,BCC,2019
J69,10.1016/j.jallcom.2019.05.322,Hf1 Nb1 Ta1 Ti1 Zr1,BCC,S,CR + A,60.0,,,,400.0,,,,,84.2,,,,,,,,,188,BCC,WROUGHT,BCC,2019
J69,10.1016/j.jallcom.2019.05.322,Hf1 Nb1 Ta1 Ti1 Zr1,BCC,S,CR + A,60.0,,,,420.0,,,,,83.8,,,,,,,,,188,BCC,WROUGHT,BCC,2019
J69,10.1016/j.jallcom.2019.05.322,Hf1 Nb1 Ta1 Ti1 Zr1,BCC,S,CR + A,60.0,,,,440.0,,,,,83.5,,,,,,,,,188,BCC,WROUGHT,BCC,2019
J69,10.1016/j.jallcom.2019.05.322,Hf1 Nb1 Ta1 Ti1 Zr1,BCC,S,CR + A,60.0,,,,460.0,,,,,83.1,,,,,,,,,188,BCC,WROUGHT,BCC,2019
J69,10.1016/j.jallcom.2019.05.322,Hf1 Nb1 Ta1 Ti1 Zr1,BCC,S,CR + A,60.0,,,,480.0,,,,,82.7,,,,,,,,,188,BCC,WROUGHT,BCC,2019
J69,10.1016/j.jallcom.2019.05.322,Hf1 Nb1 Ta1 Ti1 Zr1,BCC,S,CR + A,60.0,,,,500.0,,,,,82.3,,,,,,,,,188,BCC,WROUGHT,BCC,2019
J69,10.1016/j.jallcom.2019.05.322,Hf1 Nb1 Ta1 Ti1 Zr1,BCC,S,CR + A,60.0,,,,520.0,,,,,81.9,,,,,,,,,188,BCC,WROUGHT,BCC,2019
J69,10.1016/j.jallcom.2019.05.322,Hf1 Nb1 Ta1 Ti1 Zr1,BCC,S,CR + A,60.0,,,,540.0,,,,,81.6,,,,,,,,,188,BCC,WROUGHT,BCC,2019
J69,10.1016/j.jallcom.2019.05.322,Hf1 Nb1 Ta1 Ti1 Zr1,BCC,S,CR + A,60.0,,,,560.0,,,,,81.3,,,,,,,,,188,BCC,WROUGHT,BCC,2019
J69,10.1016/j.jallcom.2019.05.322,Hf1 Nb1 Ta1 Ti1 Zr1,BCC,S,CR + A,60.0,,,,580.0,,,,,81.0,,,,,,,,,188,BCC,WROUGHT,BCC,2019
J69,10.1016/j.jallcom.2019.05.322,Hf1 Nb1 Ta1 Ti1 Zr1,BCC,S,CR + A,60.0,,,,600.0,,,,,80.7,,,,,,,,,188,BCC,WROUGHT,BCC,2019
J69,10.1016/j.jallcom.2019.05.322,Hf1 Nb1 Ta1 Ti1 Zr1,BCC,S,CR + A,60.0,,,,620.0,,,,,80.4,,,,,,,,,188,BCC,WROUGHT,BCC,2019
J69,10.1016/j.jallcom.2019.05.322,Hf1 Nb1 Ta1 Ti1 Zr1,BCC,S,CR + A,60.0,,,,640.0,,,,,80.2,,,,,,,,,188,BCC,WROUGHT,BCC,2019
J69,10.1016/j.jallcom.2019.05.322,Hf1 Nb1 Ta1 Ti1 Zr1,BCC,S,CR + A,60.0,,,,660.0,,,,,80.0,,,,,,,,,188,BCC,WROUGHT,BCC,2019
J69,10.1016/j.jallcom.2019.05.322,Hf1 Nb1 Ta1 Ti1 Zr1,BCC,S,CR + A,60.0,,,,680.0,,,,,79.8,,,,,,,,,188,BCC,WROUGHT,BCC,2019
J69,10.1016/j.jallcom.2019.05.322,Hf1 Nb1 Ta1 Ti1 Zr1,BCC,S,CR + A,60.0,,,,700.0,,,,,79.6,,,,,,,,,188,BCC,WROUGHT,BCC,2019
J69,10.1016/j.jallcom.2019.05.322,Hf1 Nb1 Ta1 Ti1 Zr1,BCC,S,CR + A,60.0,,,,720.0,,,,,79.3,,,,,,,,,188,BCC,WROUGHT,BCC,2019
J69,10.1016/j.jallcom.2019.05.322,Hf1 Nb1 Ta1 Ti1 Zr1,BCC,S,CR + A,60.0,,,,740.0,,,,,79.0,,,,,,,,,188,BCC,WROUGHT,BCC,2019
J69,10.1016/j.jallcom.2019.05.322,Hf1 Nb1 Ta1 Ti1 Zr1,BCC,S,CR + A,60.0,,,,760.0,,,,,78.7,,,,,,,,,188,BCC,WROUGHT,BCC,2019
J69,10.1016/j.jallcom.2019.05.322,Hf1 Nb1 Ta1 Ti1 Zr1,BCC,S,CR + A,60.0,,,,780.0,,,,,78.4,,,,,,,,,188,BCC,WROUGHT,BCC,2019
J69,10.1016/j.jallcom.2019.05.322,Hf1 Nb1 Ta1 Ti1 Zr1,BCC,S,CR + A,60.0,,,,800.0,,,,,78.1,,,,,,,,,188,BCC,WROUGHT,BCC,2019
J69,10.1016/j.jallcom.2019.05.322,Hf1 Nb1 Ta1 Ti1 Zr1,BCC,S,CR + A,60.0,,,,820.0,,,,,77.7,,,,,,,,,188,BCC,WROUGHT,BCC,2019
J69,10.1016/j.jallcom.2019.05.322,Hf1 Nb1 Ta1 Ti1 Zr1,BCC,S,CR + A,60.0,,,,840.0,,,,,77.4,,,,,,,,,188,BCC,WROUGHT,BCC,2019
J70,10.1016/j.msea.2019.138181,Co1 Cr1 Fe1 Ni1 Ti0.3,FCC,S,A + HR,90.0,,263.0,T,25.0,540.0,772.0,60.0,,,,,,rearranged order of processing; fixed grain size,,,,,190,FCC,WROUGHT,FCC,msea
J70,10.1016/j.msea.2019.138181,Co1 Cr1 Fe1 Ni1 Ti0.3,FCC,S,HR + A,216.0,,185.0,,,,,,,,,,,rearranged order of processing; fixed grain size,,,,,190,FCC,WROUGHT,FCC,msea
J70,10.1016/j.msea.2019.138181,Co0.333 Cr0.667 Fe0.667 Ni1 Ti0.2,FCC,S,HR + A,263.0,,197.0,,,,,,,,,,,added in T dependant data,,,,,190,FCC,WROUGHT,FCC,msea
J70,10.1016/j.msea.2019.138181,Co0.333 Cr0.667 Fe0.667 Ni1 Ti0.2,FCC,S,A + HR,90.0,,308.0,T,25.0,586.0,875.0,46.0,,,,,,added in T dependant data,,,,,190,FCC,WROUGHT,FCC,msea
J70,10.1016/j.msea.2019.138181,Cr0.5 Fe0.5 Ni1 Ti0.15,FCC,S,A + HR,90.0,,335.0,T,25.0,672.0,982.0,37.0,,,,,,rearranged order of processing; fixed grain size,,,,,190,FCC,WROUGHT,FCC,msea
J70,10.1016/j.msea.2019.138181,Cr0.5 Fe0.5 Ni1 Ti0.15,FCC,S,HR + A,324.0,,204.0,,,,,,,,,,,added in T dependant data,,,,,190,FCC,WROUGHT,FCC,msea
J71,10.1016/j.msea.2019.138140,Mo1 Nb1 Ta1 W1,BCC,S,S ,,,830.0,,,,,,,,,,,No mechanical data; original data in GPA,,,,,191,BCC,POWDER,BCC,msea
J71,10.1016/j.msea.2019.138140,Mo1 Nb1 Ta1 W1,BCC,S,S + A,,,1450.0,,,,,,,,,,,added sintering as a processing type; original data in GPA,,,,,191,BCC,ANNEAL,BCC,msea
J71,10.1016/j.msea.2019.138140,Mo1 Nb1 Ta1 W1,BCC,S,S + A,,,1630.0,,,,,,,,,,,original data in GPA,,,,,191,BCC,ANNEAL,BCC,msea
J71,10.1016/j.msea.2019.138140,Mo1 Nb1 Ta1 W1,BCC,S,S + A,,,815.0,,,,,,,,,,,original data in GPA,,,,,191,BCC,ANNEAL,BCC,msea
J71,10.1016/j.msea.2019.138140,Mo1 Nb1 Ta1 W1,BCC + Carbide,M,S + A,,,700.0,,,,,,,,,,,original data in GPA,,,,,191,other,ANNEAL,,msea
J72,10.1016/j.actamat.2019.06.006,Nb1 Ta1 Ti1,BCC,S,CR + A ,,,,C,20.0,573.0,,,,,100.0,5,,changed processing to CR + A; fixed yield strengths,,,,,192,BCC,WROUGHT,BCC,2019
J72,10.1016/j.actamat.2019.06.006,Nb1 Ta1 Ti1,BCC,S,CR + A ,,,,C,100.0,486.0,,,,,100.0,5,,changed processing to CR + A; fixed yield strengths,,,,,192,BCC,WROUGHT,BCC,2019
J72,10.1016/j.actamat.2019.06.006,Nb1 Ta1 Ti1,BCC,S,CR + A ,,,,C,200.0,378.0,,,,,100.0,5,,changed processing to CR + A; fixed yield strengths,,,,,192,BCC,WROUGHT,BCC,2019
J72,10.1016/j.actamat.2019.06.006,Nb1 Ta1 Ti1,BCC,S,CR + A ,,,,C,300.0,314.0,,,,,100.0,5,,changed processing to CR + A; fixed yield strengths,,,,,192,BCC,WROUGHT,BCC,2019
J72,10.1016/j.actamat.2019.06.006,Nb1 Ta1 Ti1,BCC,S,CR + A ,,,,C,400.0,232.0,,,,,100.0,5,,changed processing to CR + A; fixed yield strengths,,,,,192,BCC,WROUGHT,BCC,2019
J72,10.1016/j.actamat.2019.06.006,Nb1 Ta1 Ti1,BCC,S,CR + A ,,,,C,600.0,222.0,,,,,100.0,5,,changed processing to CR + A; fixed yield strengths,,,,,192,BCC,WROUGHT,BCC,2019
J72,10.1016/j.actamat.2019.06.006,Nb1 Ta1 Ti1,BCC,S,CR + A ,,,,C,800.0,210.0,,,,,100.0,5,,changed processing to CR + A; fixed yield strengths,,,,,192,BCC,WROUGHT,BCC,2019
J72,10.1016/j.actamat.2019.06.006,Nb1 Ta1 Ti1,BCC,S,CR + A ,,,,C,1000.0,160.0,,,,,100.0,5,,changed processing to CR + A; fixed yield strengths,,,,,192,BCC,WROUGHT,BCC,2019
J72,10.1016/j.actamat.2019.06.006,Al1 Nb1 Ta1 Ti1,BCC,S,AC,,,,C,20.0,1152.0,,,,,180.0,5,,fixed yield strengths,,,,,192,BCC,CAST,BCC,2019
J72,10.1016/j.actamat.2019.06.006,Al1 Nb1 Ta1 Ti1,BCC,S,AC,,,,C,200.0,740.0,,,,,180.0,5,,fixed yield strengths,,,,,192,BCC,CAST,BCC,2019
J72,10.1016/j.actamat.2019.06.006,Al1 Nb1 Ta1 Ti1,BCC,S,AC,,,,C,100.0,740.0,,,,,180.0,5,,fixed yield strengths,,,,,192,BCC,CAST,BCC,2019
J72,10.1016/j.actamat.2019.06.006,Mo1 Nb1 Ta1 Ti1,BCC,S,A,,,,C,20.0,1210.0,,,,,80.0,5,,fixed yield strengths,,,,,192,BCC,ANNEAL,BCC,2019
J72,10.1016/j.actamat.2019.06.006,Mo1 Nb1 Ta1 Ti1,BCC,S,A,,,,C,60.0,1071.0,,,,,80.0,5,,fixed yield strengths,,,,,192,BCC,ANNEAL,BCC,2019
J72,10.1016/j.actamat.2019.06.006,Mo1 Nb1 Ta1 Ti1,BCC,S,A,,,,C,100.0,1029.0,,,,,80.0,5,,fixed yield strengths,,,,,192,BCC,ANNEAL,BCC,2019
J72,10.1016/j.actamat.2019.06.006,Mo1 Nb1 Ta1 Ti1,BCC,S,A,,,,C,200.0,868.0,,,,,80.0,5,,fixed yield strengths,,,,,192,BCC,ANNEAL,BCC,2019
J72,10.1016/j.actamat.2019.06.006,Mo1 Nb1 Ta1 Ti1,BCC,S,A,,,,C,300.0,732.0,,,,,80.0,5,,fixed yield strengths,,,,,192,BCC,ANNEAL,BCC,2019
J72,10.1016/j.actamat.2019.06.006,Mo1 Nb1 Ta1 Ti1,BCC,S,A,,,,C,400.0,685.0,,,,,80.0,5,,fixed yield strengths,,,,,192,BCC,ANNEAL,BCC,2019
J72,10.1016/j.actamat.2019.06.006,Mo1 Nb1 Ta1 Ti1,BCC,S,A,,,,C,600.0,593.0,,,,,80.0,5,,fixed yield strengths,,,,,192,BCC,ANNEAL,BCC,2019
J72,10.1016/j.actamat.2019.06.006,Mo1 Nb1 Ta1 Ti1,BCC,S,A,,,,C,800.0,564.0,,,,,80.0,5,,fixed yield strengths,,,,,192,BCC,ANNEAL,BCC,2019
J72,10.1016/j.actamat.2019.06.006,Mo1 Nb1 Ta1 Ti1,BCC,S,A,,,,C,1000.0,539.0,,,,,80.0,5,,fixed yield strengths,,,,,192,BCC,ANNEAL,BCC,2019
J72,10.1016/j.actamat.2019.06.006,Nb1 Ta1 Ti1 W1,BCC,S,A,,,,C,20.0,1054.0,,,,,90.0,5,,fixed yield strengths,,,,,192,BCC,ANNEAL,BCC,2019
J72,10.1016/j.actamat.2019.06.006,Nb1 Ta1 Ti1 W1,BCC,S,A,,,,C,100.0,968.0,,,,,90.0,5,,fixed yield strengths,,,,,192,BCC,ANNEAL,BCC,2019
J72,10.1016/j.actamat.2019.06.006,Nb1 Ta1 Ti1 W1,BCC,S,A,,,,C,200.0,869.0,,,,,90.0,5,,fixed yield strengths,,,,,192,BCC,ANNEAL,BCC,2019
J72,10.1016/j.actamat.2019.06.006,Nb1 Ta1 Ti1 W1,BCC,S,A,,,,C,300.0,754.0,,,,,90.0,5,,fixed yield strengths,,,,,192,BCC,ANNEAL,BCC,2019
J72,10.1016/j.actamat.2019.06.006,Nb1 Ta1 Ti1 W1,BCC,S,A,,,,C,400.0,627.0,,,,,90.0,5,,fixed yield strengths,,,,,192,BCC,ANNEAL,BCC,2019
J72,10.1016/j.actamat.2019.06.006,Nb1 Ta1 Ti1 W1,BCC,S,A,,,,C,600.0,596.0,,,,,90.0,5,,fixed yield strengths,,,,,192,BCC,ANNEAL,BCC,2019
J72,10.1016/j.actamat.2019.06.006,Nb1 Ta1 Ti1 W1,BCC,S,A,,,,C,800.0,564.0,,,,,90.0,5,,fixed yield strengths,,,,,192,BCC,ANNEAL,BCC,2019
J72,10.1016/j.actamat.2019.06.006,Nb1 Ta1 Ti1 W1,BCC,S,A,,,,C,1000.0,459.0,,,,,90.0,5,,fixed yield strengths,,,,,192,BCC,ANNEAL,BCC,2019
J72,10.1016/j.actamat.2019.06.006,Hf1 Nb1 Ta1 Ti1,BCC,S,A,,,,C,20.0,860.0,,,,,160.0,5,,fixed yield strengths,,,,,192,BCC,ANNEAL,BCC,2019
J72,10.1016/j.actamat.2019.06.006,Hf1 Nb1 Ta1 Ti1,BCC,S,A,,,,C,20.0,834.0,,,,,160.0,5,,fixed yield strengths,,,,,192,BCC,ANNEAL,BCC,2019