REFERENCE: tag,REFERENCE: doi,FORMULA,PROPERTY: Type of phases,PROPERTY: Single/Multiphase,PROPERTY: synthesis method,PROPERTY: grain size ($\mu$m),PROPERTY: ROM Density (g/cm$^3$),PROPERTY: HV,PROPERTY: Type of test,PROPERTY: Test temperature ($^\circ$C),PROPERTY: YS (MPa),PROPERTY: UTS (MPa),PROPERTY: Elongation (%),PROPERTY: Elongation plastic (%),PROPERTY: Young modulus (GPa),PROPERTY: O content (wppm),PROPERTY: N content (wppm),PROPERTY: C content (wppm),REFERENCE: comment,"Internal Reference # (J4, J90)","J4, J90 Original DOI",PROPERTY: Exp. Density (g/cm$^3$),Unnamed: 22,IDENTIFIER: Reference ID,PROPERTY: BCC/FCC/other,PROPERTY: Processing method,PROPERTY: Microstructure,REFERENCE: year
Couzinie_33,10.1016/j.jallcom.2015.07.209,Hf1 Nb1 Ta1 Ti1 Zr1,BCC,S,CR+A,,9.9,351.0,T,25.0,1145.0,1262.0,9.7,,110.6,,,,,,,,,81,BCC,WROUGHT,BCC,2015
Couzinie_34,10.1016/j.matlet.2016.08.060,Hf1 Nb1 Ta1 Ti1 Zr1,BCC,S,CR+A,,9.9,,T,25.0,958.0,974.0,,,110.6,,,,,,,,,82,BCC,WROUGHT,BCC,2016
Couzinie_34,10.1016/j.matlet.2016.08.060,Hf1 Nb1 Ta1 Ti1 Zr1,BCC,S,CR+A,,9.9,,T,25.0,944.0,959.0,,,110.6,,,,,,,,,82,BCC,WROUGHT,BCC,2016
Couzinie_34,10.1016/j.matlet.2016.08.060,Hf1 Nb1 Ta1 Ti1 Zr1,BCC,S,CR+A,,9.9,,T,25.0,940.0,953.0,,,110.6,,,,,,,,,82,BCC,WROUGHT,BCC,2016
Couzinie_35,10.1016/jactamat.2017.09.062,Hf1 Nb1 Ta1 Ti1 Zr1,BCC,S,CR+A,,9.9,,T,25.0,940.0,1080.0,,,110.6,,,,,,,,,83,BCC,WROUGHT,BCC,2017
Couzinie_36,10.1016/j.jallcom.2011.02.171,Hf1 Nb1 Ta1 Ti1 Zr1,BCC,S,HIP+A,,9.9,,C,25.0,929.0,,,,110.6,,,,,,,,,84,BCC,OTHER,BCC,2011
Couzinie_37,10.1016/j.msea.2015.08.024,Hf1 Nb1 Ta1 Ti1 Zr1,BCC,S,AC,,9.9,,C,25.0,905.0,,,,110.6,,,,,,,,,85,BCC,CAST,BCC,2015
Couzinie_38,10.1016/j.matchar.2015.11.018,Hf1 Nb1 Ta1 Ti1 Zr1,BCC,S,AC,,9.9,,C,25.0,890.0,,,,110.6,,,,,,,,,86,BCC,CAST,BCC,2015
Couzinie_39,10.1016/j.msea.2015.12.017,Hf1 Nb1 Ta1 Ti1 Zr1,BCC,S,AC,,9.9,,T,25.0,828.0,862.0,,,110.6,,,,,,,,,87,BCC,CAST,BCC,2015
Couzinie_39,10.1016/j.msea.2015.12.017,Hf1 Nb1 Ta1 Ti1 Zr1,BCC,S,AC,,9.9,,T,25.0,827.0,856.0,,,110.6,,,,,,,,,87,BCC,CAST,BCC,2015
Couzinie_39,10.1016/j.msea.2015.12.017,Hf1 Nb1 Ta1 Ti1 Zr1,BCC,S,AC,,9.9,,T,25.0,820.0,869.0,,,110.6,,,,,,,,,87,BCC,CAST,BCC,2015
Couzinie_39,10.1016/j.msea.2015.12.017,Hf1 Nb1 Ta1 Ti1 Zr1,BCC,S,AC,,9.9,,T,25.0,803.0,810.0,,,110.6,,,,,,,,,87,BCC,CAST,BCC,2015
Couzinie_4,10.4028/www.scientific.net/MSF.898.638,Al0.2 Mo1 Ta1 Ti1 V1,BCC,S,AC,,9.2,,C,25.0,1021.0,1249.0,,,184.0,,,,,,,,,88,BCC,CAST,BCC,
Couzinie_4,10.4028/www.scientific.net/MSF.898.638,Al0.6 Mo1 Ta1 Ti1 V1,BCC,S,AC,,8.6,,C,25.0,962.0,1033.0,,,174.1,,,,,,,,,88,BCC,CAST,BCC,
Couzinie_4,10.4028/www.scientific.net/MSF.898.638,Al1 Mo1 Ta1 Ti1 V1,BCC,S,AC,,8.2,,C,25.0,,735.0,,,165.8,,,,,,,,,88,BCC,CAST,BCC,
Couzinie_4,10.4028/www.scientific.net/MSF.898.638,Mo1 Ta1 Ti1 V1,BCC,S,AC,,9.5,,C,25.0,1221.0,1454.0,,,189.8,,,,,,,,,88,BCC,CAST,BCC,
Couzinie_41,10.1016/j.actamat.2016.01.018,Hf1 Nb1 Ta1 Zr1,BCC+HCP,M,A,,11.1,571.0,C,25.0,2310.0,,0.3,,,,,,,,,,,89,other,ANNEAL,BCC+HCP,2016
Couzinie_41,10.1016/j.actamat.2016.01.018,Hf1 Nb1 Ta1 Zr1,BCC+HCP,M,A,,11.1,536.0,C,25.0,2100.0,2200.0,3.5,,,,,,,,,,,89,other,ANNEAL,BCC+HCP,2016
Couzinie_41,10.1016/j.actamat.2016.01.018,Hf1 Nb1 Ta1 Zr1,BCC+HCP,M,A,,11.1,,C,25.0,2020.0,2030.0,1.7,,,,,,,,,,,89,other,ANNEAL,BCC+HCP,2016
Couzinie_41,10.1016/j.actamat.2016.01.018,Hf1 Nb1 Ta1 Zr1,BCC+HCP,M,A,,11.1,550.0,C,25.0,1950.0,2010.0,2.2,,,,,,,,,,,89,other,ANNEAL,BCC+HCP,2016
Couzinie_41,10.1016/j.actamat.2016.01.018,Hf1 Nb1 Ta1 Zr1,BCC,S,AC,,11.1,365.0,C,25.0,1315.0,1800.0,21.6,,109.3,,,,,,,,,89,BCC,CAST,BCC,2016
Couzinie_43,10.1002/adma.201701678,Hf1 Ta0.4 Ti1 Zr1,BCC+HCP,M,AC,,9.2,,T,25.0,400.0,1100.0,,,,,,,,,,,,90,other,CAST,BCC+HCP,
Couzinie_43,10.1002/adma.201701678,Hf1 Ta0.5 Ti1 Zr1,BCC+HCP,M,AC,,9.4,,T,25.0,700.0,1100.0,,,,,,,,,,,,90,other,CAST,BCC+HCP,
Couzinie_43,10.1002/adma.201701678,Hf1 Ta0.6 Ti1 Zr1,BCC+HCP,M,AC,,9.6,,T,25.0,800.0,1100.0,,,,,,,,,,,,90,other,CAST,BCC+HCP,
Couzinie_43,10.1002/adma.201701678,Hf1 Ta1 Ti1 Zr1,BCC,S,AC,,10.2,,T,25.0,1500.0,1500.0,,,112.0,,,,,,,,,90,BCC,CAST,BCC,
Couzinie_45,10.1016/j.msea.2017.12.004,Mo1 Nb1 Ta1 Ti0.25 W1,BCC,S,AC,,13.0,478.3,C,25.0,1109.0,1197.0,,,249.4,,,,,,,,,91,BCC,CAST,BCC,2017
Couzinie_45,10.1016/j.msea.2017.12.004,Mo1 Nb1 Ta1 Ti0.5 W1,BCC,S,AC,,12.6,481.2,C,25.0,1211.0,1578.0,,,242.0,,,,,,,,,91,BCC,CAST,BCC,2017
Couzinie_45,10.1016/j.msea.2017.12.004,Mo1 Nb1 Ta1 Ti0.75 W1,BCC,S,AC,,12.1,495.6,C,25.0,1304.0,1593.0,,,235.4,,,,,,,,,91,BCC,CAST,BCC,2017
Couzinie_45,10.1016/j.msea.2017.12.004,Mo1 Nb1 Ta1 Ti1 W1,BCC,S,AC,,11.7,507.5,C,25.0,1455.0,1910.0,,,229.4,,,,,,,,,91,BCC,CAST,BCC,2017
Couzinie_45,10.1016/j.msea.2017.12.004,Mo1 Nb1 Ta1 W1,BCC,S,AC,,13.6,,C,25.0,996.0,1148.0,,,257.8,,,,,,,,,91,BCC,CAST,BCC,2017
Couzinie_46,10.1016/j.jallcom.2016.11.188,Mo1 Nb1 Ta1 Ti1 V1,BCC,S,AC,,9.3,,C,25.0,1400.0,2450.0,,,172.8,,,,,,,,,92,BCC,CAST,BCC,2016
Couzinie_47,10.1016/j.intermet.2017.01.007,Mo1 Nb1 Ta1 Ti1 V1 W1,BCC,S,AC,,10.9,,C,600.0,973.0,1590.0,,,212.5,,,,,,,,,93,BCC,CAST,BCC,2017
Couzinie_47,10.1016/j.intermet.2017.01.007,Mo1 Nb1 Ta1 Ti1 V1 W1,BCC,S,AC,,10.9,,C,800.0,791.3,1180.0,,,,,,,,,,,,93,BCC,CAST,BCC,2017
Couzinie_47,10.1016/j.intermet.2017.01.007,Mo1 Nb1 Ta1 Ti1 V1 W1,BCC,S,AC,,10.9,,C,1000.0,752.8,1105.0,,,,,,,,,,,,93,BCC,CAST,BCC,2017
Couzinie_47,10.1016/j.intermet.2017.01.007,Mo1 Nb1 Ta1 Ti1 V1 W1,BCC,S,AC,,10.9,,C,1200.0,659.0,696.0,,,,,,,,,,,,93,BCC,CAST,BCC,2017
Couzinie_47,10.1016/j.intermet.2017.01.007,Mo1 Nb1 Ta1 Ti1 V1 W1,BCC,S,AC,,10.9,,C,25.0,1515.0,2135.0,,,,,,,,,,,,93,BCC,CAST,BCC,2017
Couzinie_47,10.1016/j.intermet.2017.01.007,Mo1 Nb1 Ta1 Ti1 W1,BCC,S,AC,,11.7,,C,600.0,689.0,1681.0,,,229.4,,,,,,,,,93,BCC,CAST,BCC,2017
Couzinie_47,10.1016/j.intermet.2017.01.007,Mo1 Nb1 Ta1 Ti1 W1,BCC,S,AC,,11.7,,C,800.0,674.0,1618.0,,,,,,,,,,,,93,BCC,CAST,BCC,2017
Couzinie_47,10.1016/j.intermet.2017.01.007,Mo1 Nb1 Ta1 Ti1 W1,BCC,S,AC,,11.7,,C,1000.0,620.0,1426.0,,,,,,,,,,,,93,BCC,CAST,BCC,2017
Couzinie_47,10.1016/j.intermet.2017.01.007,Mo1 Nb1 Ta1 Ti1 W1,BCC,S,AC,,11.7,,C,1200.0,586.0,814.0,,,,,,,,,,,,93,BCC,CAST,BCC,2017
Couzinie_47,10.1016/j.intermet.2017.01.007,Mo1 Nb1 Ta1 Ti1 W1,BCC,S,AC,,11.7,,C,25.0,1343.0,2005.0,,,,,,,,,,,,93,BCC,CAST,BCC,2017
Couzinie_48,10.1016/j.msec.2016.12.057,Mo1 Nb1 Ta1 Ti1 Zr1,BCC+BCC,M,AC,,9.1,,C,25.0,1390.0,,,,,,,,,,,,,94,other,CAST,BCC+BCC,2016
Couzinie_49,10.1016/j.scriptamat.2016.10.028,Mo1 Nb1 Ta1 Ti1 Zr1,BCC+BCC,M,A,,9.1,,C,25.0,1100.0,1200.0,,,,,,,,,,,,95,other,ANNEAL,BCC+BCC,2016
Couzinie_49,10.1016/j.scriptamat.2016.10.028,Mo1 Nb1 Ta1 Ti1 Zr1,BCC+BCC,M,AC,,9.1,,C,25.0,1375.0,1450.0,,,,,,,,,,,,95,other,CAST,BCC+BCC,2016
Couzinie_51,10.1016/j.msea.2017.12.021,Mo1 Nb1 Ta1 V1 W1,BCC,S,SPS,,12.3,,C,25.0,2612.0,3472.0,,,231.8,,,,,,,,,96,BCC,POWDER,BCC,2017
Couzinie_54,10.1016/j.msea.2016.07.102,Nb1 Ta1 Ti1 V1,BCC,S,AC,,9.1,,C,25.0,965.0,,,,133.8,,,,,,,,,97,BCC,CAST,BCC,2016
Couzinie_54,10.1016/j.msea.2016.07.102,Nb1 Ta1 Ti1 V1 W1,BCC,S,AC,,11.0,,C,25.0,1420.0,1800.0,20.0,,189.2,,,,,,,,,97,BCC,CAST,BCC,2016
Couzinie_54,10.1016/j.msea.2016.07.102,Nb1 Ta1 V1 W1,BCC,S,AC,,12.8,,C,25.0,1530.0,1700.0,12.0,,207.5,,,,,,,,,97,BCC,CAST,BCC,2016
Couzinie_8,10.1016/j.matlet.2016.11.030,Al0.25 Cr0.5 Nb0.5 Ti1 V0.25,BCC+Laves,M,A,,5.8,,C,600.0,930.0,,,,,,,,,,,,,98,other,ANNEAL,BCC+Laves,2016
Couzinie_8,10.1016/j.matlet.2016.11.030,Al0.25 Cr0.5 Nb0.5 Ti1 V0.25,BCC+Laves,M,A,,5.8,,C,800.0,445.0,,,,143.0,,,,,,,,,98,other,ANNEAL,BCC+Laves,2016
Couzinie_8,10.1016/j.matlet.2016.11.030,Al0.25 Cr0.5 Nb0.5 Ti1 V0.25,BCC+Laves,M,A,,5.8,,C,1000.0,90.0,,,,,,,,,,,,,98,other,ANNEAL,BCC+Laves,2016
Couzinie_8,10.1016/j.matlet.2016.11.030,Al0.25 Cr0.5 Nb0.5 Ti1 V0.25,BCC+Laves,M,A,,5.8,,C,25.0,1340.0,1700.0,,,,,,,,,,,,98,other,ANNEAL,BCC+Laves,2016
Couzinie_8,10.1016/j.matlet.2016.11.030,Al0.25 Cr0.5 Nb0.5 Ti1 V0.25,BCC,S,AC,,5.8,,C,25.0,1240.0,,,,,,,,,,,,,98,BCC,CAST,BCC,2016
Couzinie_9,10.1016/j.jallcom.2015.08.224,Al1 Cr0.5 Nb1 Ti1 V1,BCC,S,A,,5.6,,C,600.0,1005.0,1045.0,,,124.1,,,,,,,,,99,BCC,ANNEAL,BCC,2015
Couzinie_9,10.1016/j.jallcom.2015.08.224,Al1 Cr0.5 Nb1 Ti1 V1,BCC,S,A,,5.6,,C,800.0,640.0,685.0,,,,,,,,,,,,99,BCC,ANNEAL,BCC,2015
Couzinie_9,10.1016/j.jallcom.2015.08.224,Al1 Cr0.5 Nb1 Ti1 V1,BCC,S,A,,5.6,,C,1000.0,40.0,80.0,,,,,,,,,,,,99,BCC,ANNEAL,BCC,2015
Couzinie_9,10.1016/j.jallcom.2015.08.224,Al1 Cr0.5 Nb1 Ti1 V1,BCC,S,A,,5.6,,C,25.0,1300.0,1430.0,,,,,,,,,,,,99,BCC,ANNEAL,BCC,2015
Couzinie_9,10.1016/j.jallcom.2015.08.224,Al0.667 Cr1 Nb0.667 Ti0.667 V0.667,BCC+Laves,M,A,,5.8,,C,600.0,1370.0,1480.0,,,,,,,,,,,,99,other,ANNEAL,BCC+Laves,2015
Couzinie_9,10.1016/j.jallcom.2015.08.224,Al0.667 Cr1 Nb0.667 Ti0.667 V0.667,BCC+Laves,M,A,,5.8,,C,800.0,970.0,1045.0,,,,,,,,,,,,99,other,ANNEAL,BCC+Laves,2015
Couzinie_9,10.1016/j.jallcom.2015.08.224,Al0.667 Cr1 Nb0.667 Ti0.667 V0.667,BCC+Laves,M,A,,5.8,,C,1000.0,75.0,105.0,,,,,,,,,,,,99,other,ANNEAL,BCC+Laves,2015
Couzinie_9,10.1016/j.jallcom.2015.08.224,Al0.667 Cr1 Nb0.667 Ti0.667 V0.667,BCC+Laves,M,A,,5.8,,C,25.0,1700.0,1700.0,,,,,,,,,,,,99,other,ANNEAL,BCC+Laves,2015
Couzinie_9,10.1016/j.jallcom.2015.08.224,Al1 Cr1 Nb1 Ti1 V1,BCC+Laves,M,A,,5.7,,C,600.0,1015.0,1060.0,,,,,,,,,,,,99,other,ANNEAL,BCC+Laves,2015
Couzinie_9,10.1016/j.jallcom.2015.08.224,Al1 Cr1 Nb1 Ti1 V1,BCC+Laves,M,A,,5.7,,C,800.0,860.0,895.0,,,,,,,,,,,,99,other,ANNEAL,BCC+Laves,2015
Couzinie_9,10.1016/j.jallcom.2015.08.224,Al1 Cr1 Nb1 Ti1 V1,BCC+Laves,M,A,,5.7,,C,1000.0,65.0,95.0,,,,,,,,,,,,99,other,ANNEAL,BCC+Laves,2015
Couzinie_9,10.1016/j.jallcom.2015.08.224,Al1 Cr1 Nb1 Ti1 V1,BCC+Laves,M,A,,5.7,,C,25.0,1550.0,1570.0,,,,,,,,,,,,99,other,ANNEAL,BCC+Laves,2015
Couzinie_9,10.1016/j.jallcom.2015.08.224,Al1 Nb1 Ti1 V1,BCC,S,A,,5.5,,C,600.0,780.0,1005.0,,,104.8,,,,,,,,,99,BCC,ANNEAL,BCC,2015
Couzinie_9,10.1016/j.jallcom.2015.08.224,Al1 Nb1 Ti1 V1,BCC,S,A,,5.5,,C,800.0,560.0,700.0,,,,,,,,,,,,99,BCC,ANNEAL,BCC,2015
Couzinie_9,10.1016/j.jallcom.2015.08.224,Al1 Nb1 Ti1 V1,BCC,S,A,,5.5,,C,1000.0,110.0,,,,,,,,,,,,,99,BCC,ANNEAL,BCC,2015
Couzinie_9,10.1016/j.jallcom.2015.08.224,Al1 Nb1 Ti1 V1,BCC,S,A,,5.5,,C,25.0,1000.0,1280.0,,,,,,,,,,,,99,BCC,ANNEAL,BCC,2015
new_ref_2,10.1002/maco.201709833,Al1 Cr1 Fe1 Mo0.5 Ni1,BCC+B2,M,AC,,,623.7,C,25.0,1914.1,4023.6,27.9,,,,,,,,,,,214,other,CAST,BCC+B2,
new_ref_2,10.1002/maco.201709833,Al1 Cr1 Fe1 Mo0.5 Ni1 Ti0.25,BCC+B2,M,AC,,,712.0,C,25.0,2161.7,3641.5,14.3,,,,,,,,,,,214,other,CAST,BCC+B2,
new_ref_2,10.1002/maco.201709833,Al1 Cr1 Fe1 Mo0.5 Ni1 Ti0.4,BCC+B2,M,AC,,,731.9,C,25.0,2185.1,3673.4,14.8,,,,,,,,,,,214,other,CAST,BCC+B2,
new_ref_2,10.1002/maco.201709833,Al1 Cr1 Fe1 Mo0.5 Ni1 Ti0.5,BCC+B2,M,AC,,,751.7,C,25.0,2228.7,3166.2,10.4,,,,,,,,,,,214,other,CAST,BCC+B2,
new_ref_2,10.1002/maco.201709833,Al1 Cr1 Fe1 Mo0.5 Ni1 Ti0.6,BCC+B2,M,AC,,,756.1,C,25.0,1314.5,1314.5,,,,,,,,,,,,214,other,CAST,BCC+B2,
new_ref_2,10.1002/maco.201709833,Al1 Cr1 Fe1 Mo0.5 Ni1 Ti0.75,BCC+B2,M,AC,,,766.2,C,25.0,618.8,618.8,,,,,,,,,,,,214,other,CAST,BCC+B2,
new_ref_4,10.1016/j.matdes.2018.06.003,Al1 Cr1 Mo1 Nb1,Laves (C14)+A15,M,A,,,,,,,,,,,,,,,,,,,215,other,ANNEAL,Laves (C14)+Sec.,2018
new_ref_4,10.1016/j.matdes.2018.06.003,Al1 Cr1 Mo1 Nb1,Laves (C14)+A15,M,AC,,,,,,,,,,,,,,,,,,,215,other,CAST,Laves (C14)+Sec.,2018
new_ref_4,10.1016/j.matdes.2018.06.003,Al1 Hf1 Nb1 Ti1,B2,S,A,,,,,,,,,,,,,,,,,,,215,other,ANNEAL,B2,2018
new_ref_4,10.1016/j.matdes.2018.06.003,Al1 Hf1 Nb1 Ti1,B2,S,AC,,,,,,,,,,,,,,,,,,,215,other,CAST,B2,2018
new_ref_4,10.1016/j.matdes.2018.06.003,Al1 Hf1 Ta1 Ti1,B2,S,A,,,,,,,,,,,,,,,,,,,215,other,ANNEAL,B2,2018
new_ref_4,10.1016/j.matdes.2018.06.003,Al1 Hf1 Ta1 Ti1,B2,S,AC,,,,,,,,,,,,,,,,,,,215,other,CAST,B2,2018
new_ref_4,10.1016/j.matdes.2018.06.003,Al1 Mo1 Nb1 Ti1,BCC+A15,M,A,,,,,,,,,,,,,,,,,,,215,other,ANNEAL,BCC+Sec.,2018
new_ref_4,10.1016/j.matdes.2018.06.003,Al1 Mo1 Nb1 Ti1,BCC,S,AC,,,509.0,,,,,,,,,,,,,,,,215,BCC,CAST,BCC,2018
new_ref_4,10.1016/j.matdes.2018.06.003,Al1 Nb1 Ta1 Ti1,BCC+A15,M,A,,,,,,,,,,,,,,,,,,,215,other,ANNEAL,BCC+Sec.,2018
new_ref_4,10.1016/j.matdes.2018.06.003,Al1 Nb1 Ta1 Ti1,BCC,S,AC,,,458.0,,,,,,,,,,,,,,,,215,BCC,CAST,BCC,2018
new_ref_4,10.1016/j.matdes.2018.06.003,Cr1 Mo1 Ta1 Ti1,BCC,S,A,,,555.0,,,,,,,,,,,,,,,,215,BCC,ANNEAL,BCC,2018
new_ref_4,10.1016/j.matdes.2018.06.003,Cr1 Mo1 Ta1 Ti1,BCC,S,AC,,,539.0,,,,,,,,,,,,,,,,215,BCC,CAST,BCC,2018
new_ref_4,10.1016/j.matdes.2018.06.003,Cr1 Nb1 Ta1 Ti1,BCC+Laves (C15),M,A,,,,,,,,,,,,,,,,,,,215,other,ANNEAL,BCC+Laves (C15),2018
new_ref_4,10.1016/j.matdes.2018.06.003,Cr1 Nb1 Ta1 Ti1,BCC,S,AC,,,495.0,,,,,,,,,,,,,,,,215,BCC,CAST,BCC,2018
new_ref_4,10.1016/j.matdes.2018.06.003,Cr1 Nb1 Ti1 W1,BCC+Laves (C15),M,A,,,630.0,,,,,,,,,,,,,,,,215,other,ANNEAL,BCC+Laves (C15),2018
new_ref_4,10.1016/j.matdes.2018.06.003,Cr1 Nb1 Ti1 W1,BCC,S,AC,,,630.0,,,,,,,,,,,,,,,,215,BCC,CAST,BCC,2018
new_ref_4,10.1016/j.matdes.2018.06.003,Hf1 Nb1 Ta1 Ti1,BCC,S,A,,,280.0,,,,,,,,,,,,,,,,215,BCC,ANNEAL,BCC,2018
new_ref_4,10.1016/j.matdes.2018.06.003,Hf1 Nb1 Ta1 Ti1,BCC,S,AC,,,270.0,,,,,,,,,,,,,,,,215,BCC,CAST,BCC,2018
new_ref_4,10.1016/j.matdes.2018.06.003,Mo1 Nb1 Ta1 Ti1 W1,BCC,S,A,,,482.0,,,,,,,,,,,,,,,,215,BCC,ANNEAL,BCC,2018
new_ref_4,10.1016/j.matdes.2018.06.003,Mo1 Nb1 Ta1 Ti1 W1,BCC,S,AC,,,446.0,,,,,,,,,,,,,,,,215,BCC,CAST,BCC,2018
new_ref_4,10.1016/j.matdes.2018.06.003,Mo1 Nb1 Ta1 Ti1,BCC,S,A,,,407.0,,,,,,,,,,,,,,,,215,BCC,ANNEAL,BCC,2018
new_ref_4,10.1016/j.matdes.2018.06.003,Mo1 Nb1 Ta1 Ti1,BCC,S,AC,,,431.0,,,,,,,,,,,,,,,,215,BCC,CAST,BCC,2018
J2,10.1016/j.scriptamat.2018.08.048,Al0.3 Co1 Cr1 Fe1 Ni1,FCC + B2 + Sigma,M,CR + A,0.71,,,T,25.0,900.0,1074.0,25.0,,,,,,,,,,,139,other,WROUGHT,,2018
J3,10.1016/j.jallcom.2018.08.093,Cr0.5 Fe1 Mn0.625 Ni0.375,FCC + BCC,M,AC,75.0,,,C,25.0,219.0,,,,,,,,,,,,,149,other,CAST,,2018
J3,10.1016/j.jallcom.2018.08.093,Al0.05 Cr0.5 Fe1 Mn0.625 Ni0.375,FCC + BCC,M,AC,,,,C,25.0,354.0,,,,,,,,,,,,,149,other,CAST,,2018
J3,10.1016/j.jallcom.2018.08.093,Al0.15 Cr0.5 Fe1 Mn0.625 Ni0.375,FCC + BCC,M,AC,,,,C,25.0,550.0,,,,,,,,,,,,,149,other,CAST,,2018
J3,10.1016/j.jallcom.2018.08.093,Al0.25 Cr0.5 Fe1 Mn0.625 Ni0.375,B2 + BCC,M,AC,175.0,,,C,25.0,994.0,,,,,,,,,,,,,149,other,CAST,,2018
J3,10.1016/j.jallcom.2018.08.093,Al0.35 Cr0.5 Fe1 Mn0.625 Ni0.375,B2 + BCC,M,AC,175.0,,,C,25.0,942.0,,,,,,,,,,,,,149,other,CAST,,2018
J3,10.1016/j.jallcom.2018.08.093,Cr0.5 Fe1 Mn0.625 Ni0.375,FCC + BCC,M,AC,75.0,,,C,400.0,132.0,,,,,,,,,,,,,149,other,CAST,,2018
J3,10.1016/j.jallcom.2018.08.093,Al0.05 Cr0.5 Fe1 Mn0.625 Ni0.375,FCC + BCC,M,AC,,,,C,400.0,260.0,,,,,,,,,,,,,149,other,CAST,,2018
J3,10.1016/j.jallcom.2018.08.093,Al0.15 Cr0.5 Fe1 Mn0.625 Ni0.375,FCC + BCC,M,AC,,,,C,400.0,469.0,,,,,,,,,,,,,149,other,CAST,,2018
J3,10.1016/j.jallcom.2018.08.093,Al0.25 Cr0.5 Fe1 Mn0.625 Ni0.375,B2 + BCC,M,AC,175.0,,,C,400.0,943.0,,,,,,,,,,,,,149,other,CAST,,2018
J3,10.1016/j.jallcom.2018.08.093,Al0.35 Cr0.5 Fe1 Mn0.625 Ni0.375,B2 + BCC,M,AC,175.0,,,C,400.0,833.0,,,,,,,,,,,,,149,other,CAST,,2018
J3,10.1016/j.jallcom.2018.08.093,Cr0.5 Fe1 Mn0.625 Ni0.375,FCC + BCC,M,AC,75.0,,,C,600.0,115.0,,,,,,,,,,,,,149,other,CAST,,2018
J3,10.1016/j.jallcom.2018.08.093,Al0.05 Cr0.5 Fe1 Mn0.625 Ni0.375,FCC + BCC,M,AC,,,,C,600.0,155.0,,,,,,,,,,,,,149,other,CAST,,2018
J3,10.1016/j.jallcom.2018.08.093,Al0.15 Cr0.5 Fe1 Mn0.625 Ni0.375,FCC + BCC,M,AC,,,,C,600.0,272.0,,,,,,,,,,,,,149,other,CAST,,2018
J3,10.1016/j.jallcom.2018.08.093,Al0.25 Cr0.5 Fe1 Mn0.625 Ni0.375,B2 + BCC,M,AC,175.0,,,C,600.0,359.0,,,,,,,,,,,,,149,other,CAST,,2018
J3,10.1016/j.jallcom.2018.08.093,Al0.35 Cr0.5 Fe1 Mn0.625 Ni0.375,B2 + BCC,M,AC,175.0,,,C,600.0,326.0,,,,,,,,,,,,,149,other,CAST,,2018
J4,10.1016/j.matchar.2018.06.036,Co1 Cr1 Fe1 Mn1 Ni1,FCC,S,CR + A,4.4,,,T,25.0,370.0,670.0,56.0,,,,,,switched to engineering stress strain ,8,10.1016/j.actamat.2013.06.018,,https://doi.org/10.1016/j.actamat.2013.06.018,159,FCC,WROUGHT,FCC,2018
J4,10.1016/j.matchar.2018.06.036,Co0.2 Cr0.2 Fe1 Mn0.6,FCC + HCP,M,A,45.0,,,T,25.0,250.0,730.0,50.0,,,,,,switched to engineering stress strain ,18,10.1016/j.actamat.2017.03.069,,,159,other,ANNEAL,,2018
J4,10.1016/j.matchar.2018.06.036,Co0.2 Cr0.2 Fe1 Mn0.6,FCC + HCP,M,CR + A,4.5,,,T,25.0,330.0,870.0,75.0,,,,,,switched to engineering stress strain ,18,10.1016/j.actamat.2017.03.069,,,159,other,WROUGHT,,2018
J4,10.1016/j.matchar.2018.06.036,Co0.2 Cr0.2 Fe1 Mn0.6,FCC + HCP,M,CR + A,6.0,,,T,25.0,280.0,800.0,65.0,,,,,,switched to engineering stress strain ,18,10.1016/j.actamat.2017.03.069,,,159,other,WROUGHT,,2018
J4,10.1016/j.matchar.2018.06.036,Co0.2 Cr0.2 Fe1 Mn0.6,FCC + HCP,M,CR + A,15.0,,,T,25.0,350.0,830.0,63.0,,,,,,switched to engineering stress strain ,18,10.1016/j.actamat.2017.03.069,,,159,other,WROUGHT,,2018
J4,10.1016/j.matchar.2018.06.036,Co0.2 Cr0.2 Fe1 Mn0.6,FCC + HCP,M,HR + A,6.5,,,T,25.0,298.0,1400.0,45.0,,,,,,removed true stress strain values,34,10.1038/s41598-017-16509-9,,,159,other,WROUGHT,,2018
J4,10.1016/j.matchar.2018.06.036,Co0.2 Cr0.2 Fe1 Mn0.6,FCC + HCP,M,HR + A,5.2,,,T,25.0,400.0,1200.0,42.0,,,,,,removed true stress strain values,34,10.1038/s41598-017-16509-9,,,159,other,WROUGHT,,2018
J4,10.1016/j.matchar.2018.06.036,Al0.304 Co1 Cr1 Fe1 Ni1,FCC + B2,M,,0.7,,,T,25.0,860.0,1050.0,48.0,,,,,,"Data extracted from Table 6, does not belong in below data",60,10.1016/j.matlet.2017.04.072,,,159,other,,,2018
J4,10.1016/j.matchar.2018.06.036,Al0.304 Co1 Cr1 Fe1 Ni1,FCC + B2,M,,2.7,,,T,25.0,690.0,930.0,51.0,,,,,,,60,10.1016/j.matlet.2017.04.072,,,159,other,,,2018
J4,10.1016/j.matchar.2018.06.036,Al0.304 Co1 Cr1 Fe1 Ni1,FCC + B2,M,,3.8,,,T,25.0,550.0,800.0,64.0,,,,,,,60,10.1016/j.matlet.2017.04.072,,,159,other,,,2018
J4,10.1016/j.matchar.2018.06.036,Al0.304 Co1 Cr1 Fe1 Ni1,FCC,S,,53.0,,,T,25.0,260.0,620.0,87.0,,,,,,,60,10.1016/j.matlet.2017.04.072,,,159,FCC,,FCC,2018
J4,10.1016/j.matchar.2018.06.036,Al0.304 Co1 Cr1 Fe1 Ni1,FCC + BCC,M,CR + A,,,,,,,,,,,,,,,60,10.1016/j.matlet.2017.04.072,,,159,other,WROUGHT,,2018
J4,10.1016/j.matchar.2018.06.036,Al0.304 Co1 Cr1 Fe1 Ni1,FCC,S,CR + A,,,,,,,,,,,,,,,40,10.1016/j.scriptamat.2016.06.019,,,159,FCC,WROUGHT,FCC,2018
J4,10.1016/j.matchar.2018.06.036,Al0.304 Co1 Cr1 Fe1 Ni1,FCC + L12,M,CR + A,,,,,,,,,,,,,,,40,10.1016/j.scriptamat.2016.06.019,,,159,other,WROUGHT,,2018
J4,10.1016/j.matchar.2018.06.036,Al0.304 Co1 Cr1 Fe1 Ni1,FCC,S,CR + A,144.0,,,T,25.0,159.0,410.0,65.0,,,,,,,39,10.1016/j.matdes.2017.02.072,,,159,FCC,WROUGHT,FCC,2018
J4,10.1016/j.matchar.2018.06.036,Al0.304 Co1 Cr1 Fe1 Ni1,FCC + B2,M,CR + A,144.0,,,T,25.0,215.0,520.0,43.0,,,,,,,39,10.1016/j.matdes.2017.02.072,,,159,other,WROUGHT,,2018
J4,10.1016/j.matchar.2018.06.036,Al0.304 Co1 Cr1 Fe1 Ni1,FCC + L12,M,CR + A,144.0,,,T,25.0,285.0,540.0,55.0,,,,,,,39,10.1016/j.matdes.2017.02.072,,,159,other,WROUGHT,,2018
J4,10.1016/j.matchar.2018.06.036,Al0.304 Co1 Cr1 Fe1 Ni1,FCC,S,CR + A,23.0,,,T,25.0,263.0,589.0,60.0,,,,,,,39,10.1016/j.matdes.2017.02.072,,,159,FCC,WROUGHT,FCC,2018
J4,10.1016/j.matchar.2018.06.036,Al0.304 Co1 Cr1 Fe1 Ni1,FCC + L12 + B2,M,CR + A,23.0,,,T,25.0,490.0,840.0,45.0,,,,,,,39,10.1016/j.matdes.2017.02.072,,,159,other,WROUGHT,,2018
J4,10.1016/j.matchar.2018.06.036,Al0.304 Co1 Cr1 Fe1 Ni1,FCC,S,AC,,,,,,,,,,,,,,,57,10.1016/j.jallcom.2009.08.090,,,159,FCC,CAST,FCC,2018
J4,10.1016/j.matchar.2018.06.036,Al0.304 Co1 Cr1 Fe1 Ni1,FCC + BCC,M,A,,,,,,,,,,,,,,,57,10.1016/j.jallcom.2009.08.090,,,159,other,ANNEAL,,2018
J4,10.1016/j.matchar.2018.06.036,Al0.304 Co1 Cr1 Fe1 Ni1,FCC + BCC,M,A,,,,,,,,,,,,,,,61,10.1016/j.actamat.2017.03.066,,,159,other,ANNEAL,,2018
J4,10.1016/j.matchar.2018.06.036,Al0.304 Co1 Cr1 Fe1 Ni1,FCC + L12,M,AC,,,,T,25.0,175.0,335.0,58.0,,,,,,Added and replaced data sets,62,10.1016/j.jallcom.2008.12.088,,,159,other,CAST,,2018
J4,10.1016/j.matchar.2018.06.036,Al0.304 Co1 Cr1 Fe1 Ni1,FCC + L12,M,A,,,,T,25.0,305.0,525.0,44.0,,,,,,,62,10.1016/j.jallcom.2008.12.088,,,159,other,ANNEAL,,2018
J4,10.1016/j.matchar.2018.06.036,Al0.304 Co1 Cr1 Fe1 Ni1,FCC + B2,M,A,,,,T,25.0,280.0,570.0,44.0,,,,,,,62,10.1016/j.jallcom.2008.12.088,,,159,other,ANNEAL,,2018