REFERENCE: tag,REFERENCE: doi,FORMULA,PROPERTY: Type of phases,PROPERTY: Single/Multiphase,PROPERTY: synthesis method,PROPERTY: grain size ($\mu$m),PROPERTY: ROM Density (g/cm$^3$),PROPERTY: HV,PROPERTY: Type of test,PROPERTY: Test temperature ($^\circ$C),PROPERTY: YS (MPa),PROPERTY: UTS (MPa),PROPERTY: Elongation (%),PROPERTY: Elongation plastic (%),PROPERTY: Young modulus (GPa),PROPERTY: O content (wppm),PROPERTY: N content (wppm),PROPERTY: C content (wppm),REFERENCE: comment,"Internal Reference # (J4, J90)","J4, J90 Original DOI",PROPERTY: Exp. Density (g/cm$^3$),Unnamed: 22,IDENTIFIER: Reference ID,PROPERTY: BCC/FCC/other,PROPERTY: Processing method,PROPERTY: Microstructure,REFERENCE: year
J41,10.1016/j.intermet.2019.106477,Co1 Fe1 Ni1,FCC,S,CR+A,74.0,,,T,25.0,217.0,498.0,47.0,,,,,,fixed elongation,,,,,161,FCC,WROUGHT,FCC,2019
J41,10.1016/j.intermet.2019.106477,Co1 Fe1 Ni1,FCC,S,CR+A,90.0,,,T,25.0,201.0,430.0,44.5,,,,,,fixed elongation,,,,,161,FCC,WROUGHT,FCC,2019
J42,10.1016/j.jmst.2018.12.002,Co1 Cr1 Ni1,,,A,16.0,,,T,-196.0,600.0,1247.0,68.0,,,,,,changed processing to annealed? torrsion is something I'm unfamiliar with ,,,,,162,other,ANNEAL,,2018
J42,10.1016/j.jmst.2018.12.002,Co1 Cr1 Ni1,,,A,16.0,,,T,24.0,400.0,800.0,60.0,,,,,,changed processing to annealed? torrsion is something I'm unfamiliar with ,,,,,162,other,ANNEAL,,2018
J42,10.1016/j.jmst.2018.12.002,Co1 Cr1 Ni1,,,A,16.0,,,T,-196.0,1215.0,1440.0,48.0,,,,,,changed processing to annealed? torrsion is something I'm unfamiliar with ,,,,,162,other,ANNEAL,,2018
J43,10.1016/j.ijrmhm.2019.02.009,Cr0.286 Mo0.476 Nb1 Ta0.024 Ti0.31 V0.286,BCC + TiC,M,SPS,0.075,,741.0,C,25.0,2680.0,,,,,,,,,,,8.02,,163,other,POWDER,,2019
J43,10.1016/j.ijrmhm.2019.02.009,Al1 Nb1 Ti1 V1,BCC,S,AC,,,440.0,C,25.0,1020.0,,,,,,,,drawn from other references,,,5.48,,163,BCC,CAST,BCC,2019
J43,10.1016/j.ijrmhm.2019.02.009,Mo1 Nb1 Ta1 V1 W1,BCC,S,AC,,,535.0,C,25.0,1246.0,,,,,,,,drawn from other references,,,12.29,,163,BCC,CAST,BCC,2019
J43,10.1016/j.ijrmhm.2019.02.009,Hf1 Mo1 Nb1 Ti1 Zr1,BCC,S,AC,,,,C,25.0,1719.0,,,,,,,,drawn from other references,,,8.68,,163,BCC,CAST,BCC,2019
J43,10.1016/j.ijrmhm.2019.02.009,Al1 Mo0.5 Nb1 Ta0.5 Ti1 Zr1,BCC + B2,M,HIP,,,591.0,C,25.0,2000.0,,,,,,,,drawn from other references,,,7.14,,163,other,OTHER,,2019
J43,10.1016/j.ijrmhm.2019.02.009,Hf1 Mo0.5 Nb1 Si0.7 Ti1 V0.5,BCC + M5Si3,M,AC,,,612.0,C,25.0,2134.0,,,,,,,,drawn from other references,,,8.49,,163,other,CAST,,2019
J44,10.1016/j.actamat.2019.04.017,Co1 Fe1 Ni1,FCC,S,CR + A,53.7,,,T,25.0,,,,,161.0,,,,,,,,,164,FCC,WROUGHT,FCC,2019
J44,10.1016/j.actamat.2019.04.017,Co1 Cr0.053 Ni1,FCC,S,CR + A,7.28,,,T,25.0,,,,,219.0,,,,,,,,,164,FCC,WROUGHT,FCC,2019
J44,10.1016/j.actamat.2019.04.017,Fe1 Mn1 Ni1,FCC,S,CR + A,0.862,,,T,25.0,529.0,613.0,25.0,,182.0,,,,extracted from stress strain curves; yield strength calculated from given relationship,,,,,164,FCC,WROUGHT,FCC,2019
J44,10.1016/j.actamat.2019.04.017,Fe1 Mn1 Ni1,FCC,S,CR + A,0.894,,,T,25.0,522.0,601.0,25.0,,182.0,,,,extracted from stress strain curves; yield strength calculated from given relationship,,,,,164,FCC,WROUGHT,FCC,2019
J44,10.1016/j.actamat.2019.04.017,Fe1 Mn1 Ni1,FCC,S,CR + A,1.25,,,T,25.0,460.0,599.0,27.0,,182.0,,,,extracted from stress strain curves; yield strength calculated from given relationship,,,,,164,FCC,WROUGHT,FCC,2019
J44,10.1016/j.actamat.2019.04.017,Fe1 Mn1 Ni1,FCC,S,CR + A,1.75,,,T,25.0,407.0,536.0,26.0,,182.0,,,,extracted from stress strain curves; yield strength calculated from given relationship,,,,,164,FCC,WROUGHT,FCC,2019
J44,10.1016/j.actamat.2019.04.017,Fe1 Mn1 Ni1,FCC,S,CR + A,2.26,,,T,25.0,372.0,542.0,31.0,,182.0,,,,extracted from stress strain curves; yield strength calculated from given relationship,,,,,164,FCC,WROUGHT,FCC,2019
J44,10.1016/j.actamat.2019.04.017,Fe1 Mn1 Ni1,FCC,S,CR + A,3.52,,,T,25.0,322.0,554.0,49.0,,182.0,,,,extracted from stress strain curves; yield strength calculated from given relationship,,,,,164,FCC,WROUGHT,FCC,2019
J44,10.1016/j.actamat.2019.04.017,Co1 Mn1 Ni1,FCC,S,CR + A,1.43,,,T,25.0,333.0,569.0,40.0,,190.0,,,,extracted from stress strain curves; yield strength calculated from given relationship,,,,,164,FCC,WROUGHT,FCC,2019
J44,10.1016/j.actamat.2019.04.017,Co1 Mn1 Ni1,FCC,S,CR + A,0.4,,,T,25.0,601.0,608.0,24.0,,190.0,,,,extracted from stress strain curves; yield strength calculated from given relationship,,,,,164,FCC,WROUGHT,FCC,2019
J44,10.1016/j.actamat.2019.04.017,Co1 Mn1 Ni1,FCC,S,CR + A,1.58,,,T,25.0,321.0,566.0,50.5,,190.0,,,,extracted from stress strain curves,,,,,164,FCC,WROUGHT,FCC,2019
J44,10.1016/j.actamat.2019.04.017,Co1 Mn1 Ni1,FCC,S,CR + A,2.67,,,T,25.0,267.0,506.0,62.5,,190.0,,,,extracted from stress strain curves; yield strength calculated from given relationship,,,,,164,FCC,WROUGHT,FCC,2019
J44,10.1016/j.actamat.2019.04.017,Co1 Cr0.25 Ni1,FCC,S,CR + A,0.212,,,T,25.0,745.0,824.0,36.0,,223.0,,,,extracted from stress strain curves; yield strength calculated from given relationship,,,,,164,FCC,WROUGHT,FCC,2019
J44,10.1016/j.actamat.2019.04.017,Co1 Cr0.25 Ni1,FCC,S,CR + A,0.34,,,T,25.0,623.0,746.0,53.0,,223.0,,,,extracted from stress strain curves; yield strength calculated from given relationship,,,,,164,FCC,WROUGHT,FCC,2019
J44,10.1016/j.actamat.2019.04.017,Co1 Cr0.25 Ni1,FCC,S,CR + A,1.46,,,T,25.0,387.0,626.0,73.0,,223.0,,,,extracted from stress strain curves; yield strength calculated from given relationship,,,,,164,FCC,WROUGHT,FCC,2019
J44,10.1016/j.actamat.2019.04.017,Co1 Cr0.25 Ni1,FCC,S,CR + A,2.65,,,T,25.0,330.0,553.0,101.0,,223.0,,,,extracted from stress strain curves; yield strength calculated from given relationship,,,,,164,FCC,WROUGHT,FCC,2019
J44,10.1016/j.actamat.2019.04.017,Co1 Cr1 Fe1 Ni1,FCC,S,CR + A,0.295,,,T,25.0,631.0,732.0,39.0,,210.0,,,,extracted from stress strain curves; yield strength calculated from given relationship,,,,,164,FCC,WROUGHT,FCC,2019
J44,10.1016/j.actamat.2019.04.017,Co1 Cr1 Fe1 Ni1,FCC,S,CR + A,0.5529999999999999,,,T,25.0,494.0,732.0,51.0,,210.0,,,,extracted from stress strain curves; yield strength calculated from given relationship,,,,,164,FCC,WROUGHT,FCC,2019
J44,10.1016/j.actamat.2019.04.017,Co1 Cr1 Fe1 Ni1,FCC,S,CR + A,0.72,,,T,25.0,448.0,672.0,65.0,,210.0,,,,extracted from stress strain curves; yield strength calculated from given relationship,,,,,164,FCC,WROUGHT,FCC,2019
J44,10.1016/j.actamat.2019.04.017,Co1 Cr1 Fe1 Ni1,FCC,S,CR + A,3.4,,,T,25.0,273.0,567.0,85.0,,210.0,,,,extracted from stress strain curves; yield strength calculated from given relationship,,,,,164,FCC,WROUGHT,FCC,2019
J44,10.1016/j.actamat.2019.04.017,Co1 Cr1 Fe1 Ni1,FCC,S,CR + A,32.2,,,T,25.0,172.0,504.0,105.0,,210.0,,,,extracted from stress strain curves; yield strength calculated from given relationship,,,,,164,FCC,WROUGHT,FCC,2019
J44,10.1016/j.actamat.2019.04.017,Co0.25 Cr1 Ni1,FCC,S,CR + A,0.49700000000000005,,,T,25.0,518.0,744.0,36.0,,240.0,,,,extracted from stress strain curves; yield strength calculated from given relationship,,,,,164,FCC,WROUGHT,FCC,2019
J44,10.1016/j.actamat.2019.04.017,Co0.25 Cr1 Ni1,FCC,S,CR + A,0.848,,,T,25.0,462.0,703.0,46.0,,240.0,,,,extracted from stress strain curves; yield strength calculated from given relationship,,,,,164,FCC,WROUGHT,FCC,2019
J44,10.1016/j.actamat.2019.04.017,Co0.25 Cr1 Ni1,FCC,S,CR + A,1.78,,,T,25.0,395.0,644.0,58.0,,240.0,,,,extracted from stress strain curves,,,,,164,FCC,WROUGHT,FCC,2019
J44,10.1016/j.actamat.2019.04.017,Co0.25 Cr1 Ni1,FCC,S,CR + A,1.98,,,T,25.0,356.0,588.0,64.0,,240.0,,,,extracted from stress strain curves,,,,,164,FCC,WROUGHT,FCC,2019
J45,10.1016/j.jallcom.2019.02.083,Al1 Co1 Ni1 Ti1,BCC + B2,M,SPS,,,672.0,C,25.0,,,,,,,,,changed to multiphase,,,,,165,other,POWDER,,2019
J45,10.1016/j.jallcom.2019.02.083,Al1 Fe1 Ni1 Ti1,BCC + B2,M,SPS,,,666.0,C,25.0,,,,,,,,,changed to multiphase,,,,,165,other,POWDER,,2019
J45,10.1016/j.jallcom.2019.02.083,Al1 Co1 Fe1 Ni1 Ti1,BCC + B2,M,SPS,,,667.0,C,25.0,,,,,,,,,changed to multiphase,,,,,165,other,POWDER,,2019
J46,10.1016/j.jallcom.2019.01.341,Al1 Cr1 Cu1 Fe1 Ni1,FCC + BCC + B2,M,SPS,,,434.0,,,,,,,,,,,HV in GPA,,,,,166,other,POWDER,,2019
J46,10.1016/j.jallcom.2019.01.341,Al1 Cr1 Cu1 Fe1 Ni1,FCC + BCC + B2,M,SPS,,,666.0,,,,,,,,,,,HV in GPA,,,,,166,other,POWDER,,2019
J46,10.1016/j.jallcom.2019.01.341,Al1 Cr1 Cu1 Fe1 Ni1,FCC + BCC + B2,M,SPS,,,761.0,,,,,,,,,,,HV in GPA,,,,,166,other,POWDER,,2019
J46,10.1016/j.jallcom.2019.01.341,Al1 Cr1 Cu1 Fe1 Ni1,FCC + BCC + B2,M,SPS,,,747.0,,,,,,,,,,,HV in GPA,,,,,166,other,POWDER,,2019
J46,10.1016/j.jallcom.2019.01.341,Al1 Cr1 Cu1 Fe1 Ni1,FCC + BCC + B2,M,SPS,,,,C,20.0,1511.0,,5.0,,,,,,,,,,,166,other,POWDER,,2019
J46,10.1016/j.jallcom.2019.01.341,Al1 Cr1 Cu1 Fe1 Ni1,FCC + BCC + B2,M,SPS,,,,C,400.0,1366.0,,17.0,,,,,,,,,,,166,other,POWDER,,2019
J46,10.1016/j.jallcom.2019.01.341,Al1 Cr1 Cu1 Fe1 Ni1,FCC + BCC + B2,M,SPS,,,,C,600.0,410.0,,35.0,,,,,,,,,,,166,other,POWDER,,2019
J46,10.1016/j.jallcom.2019.01.341,Al1 Cr1 Cu1 Fe1 Ni1,FCC + BCC + B2,M,SPS,,,,C,800.0,48.0,,35.0,,,,,,,,,,,166,other,POWDER,,2019
J47,10.1016/j.msea.2019.04.025,Co1 Cr1 Fe1 Mn1 Ni1,FCC,S,AC,,,,T,25.0,210.0,,57.0,,,,,,,,,,,167,FCC,CAST,FCC,2019
J47,10.1016/j.msea.2019.04.025,Co1 Cr1 Fe1 Mn1 Ni1,FCC,S,CR,,,,T,25.0,1150.0,,6.0,,,,,,,,,,,167,FCC,WROUGHT,FCC,2019
J47,10.1016/j.msea.2019.04.025,Co1 Cr1 Fe1 Mn1 Ni1,FCC,S,CR + A,,,,T,25.0,1300.0,,2.0,,,,,,,,,,,167,FCC,WROUGHT,FCC,2019
J47,10.1016/j.msea.2019.04.025,Co1 Cr1 Fe1 Mn1 Ni1,FCC,M,CR + A,4.0,,,T,25.0,1050.0,,8.0,,,,,,,,,,,167,FCC,WROUGHT,FCC,2019
J47,10.1016/j.msea.2019.04.025,Co1 Cr1 Fe1 Mn1 Ni1,FCC,M,CR + A,8.0,,,T,25.0,560.0,,49.0,,,,,,,,,,,167,FCC,WROUGHT,FCC,2019
J47,10.1016/j.msea.2019.04.025,Co1 Cr1 Fe1 Mn1 Ni1,FCC,S,CR + A,8.0,,,T,25.0,520.0,,47.0,,,,,,,,,,,167,FCC,WROUGHT,FCC,2019
J47,10.1016/j.msea.2019.04.025,Co1 Cr1 Fe1 Mn1 Ni1,FCC,S,CR + A,10.0,,,T,25.0,320.0,,59.0,,,,,,,,,,,167,FCC,WROUGHT,FCC,2019
J47,10.1016/j.msea.2019.04.025,Co1 Cr1 Fe1 Mn1 Ni1,FCC,S,CR + A,20.0,,,T,25.0,280.0,,62.0,,,,,,,,,,,167,FCC,WROUGHT,FCC,2019
J48,10.1016/j.scriptamat.2019.02.038,Co0.5 Fe0.5 Mo0.1 Ni1 V0.25,FCC,S,AC,,,,T,-196.0,419.0,,34.6,,,,,,fracture strength isn't UTS,,,,,168,FCC,CAST,FCC,2019
J48,10.1016/j.scriptamat.2019.02.038,Co0.5 Fe0.5 Mo0.1 Ni1 V0.25,FCC,S,AC,,,,T,-70.0,350.0,,28.8,,,,,,fracture strength isn't UTS,,,,,168,FCC,CAST,FCC,2019
J48,10.1016/j.scriptamat.2019.02.038,Co0.5 Fe0.5 Mo0.1 Ni1 V0.25,FCC,S,AC,,,,T,20.0,252.0,,82.1,,,,,,fracture strength isn't UTS,,,,,168,FCC,CAST,FCC,2019
J48,10.1016/j.scriptamat.2019.02.038,Co0.5 Fe0.5 Mo0.1 Ni1 V0.25,FCC,S,AC,,,,T,600.0,214.0,,189.2,,,,,,fracture strength isn't UTS,,,,,168,FCC,CAST,FCC,2019
J48,10.1016/j.scriptamat.2019.02.038,Co0.5 Fe0.5 Mo0.1 Ni1 V0.25,FCC,S,AC,,,,T,700.0,212.0,,154.3,,,,,,fracture strength isn't UTS,,,,,168,FCC,CAST,FCC,2019
J48,10.1016/j.scriptamat.2019.02.038,Co0.5 Fe0.5 Mo0.1 Ni1 V0.25,FCC,S,AC,,,,T,800.0,187.0,,119.5,,,,,,fracture strength isn't UTS,,,,,168,FCC,CAST,FCC,2019
J49,10.1088/2053-1591/ab0597,Al0.3 Co1 Cr1 Fe1 Ni1,FCC,S,AC,,,132.0,C,300.0,,,,,,,,,,,,,,169,FCC,CAST,FCC,
J49,10.1088/2053-1591/ab0597,Al0.3 Co1 Cr1 Fe1 Ni1,FCC,S,AC,,,147.0,C,340.0,,,,,,,,,,,,,,169,FCC,CAST,FCC,
J49,10.1088/2053-1591/ab0597,Al0.3 Co1 Cr1 Fe1 Ni1,FCC,S,AC,,,165.0,C,430.0,,,,,,,,,,,,,,169,FCC,CAST,FCC,
J50,10.1016/j.matchar.2019.03.006,Al1 Co1 Cr1 Fe1 Ni1,B2 + BCC,M,AC,204.0,,519.0,C,25.0,1631.0,,16.0,,,,,,fixed yield strength values,,,,,171,other,CAST,,2019
J50,10.1016/j.matchar.2019.03.006,Al1 Co1 Cr1 Fe1 Ni1,B2 + BCC,M,AC,185.0,,493.0,C,25.0,1209.0,,23.0,,,,,,fixed yield strength values,,,,,171,other,CAST,,2019
J51,10.1016/j.jallcom.2018.12.040,Co0.318 Cr0.227 Fe1 Mo0.091 Ni0.182,FCC + $\mu$,M,CR + A,4.4,,,T,25.0,443.0,840.0,61.6,,,,,,,,,,,172,other,WROUGHT,,2018
J51,10.1016/j.jallcom.2018.12.040,Co0.327 Cr0.227 Fe1 Mo0.136 Ni0.127,FCC + $\mu$,M,CR + A,3.2,,,T,25.0,711.0,1096.0,38.3,,,,,,,,,,,172,other,WROUGHT,,2018
J51,10.1016/j.jallcom.2018.12.040,Co0.318 Cr0.227 Fe1 Mo0.091 Ni0.182,FCC + $\mu$,M,CR + A,26.3,,,T,25.0,301.0,718.0,77.5,,,,,,,,,,,172,other,WROUGHT,,2018
J51,10.1016/j.jallcom.2018.12.040,Co0.327 Cr0.227 Fe1 Mo0.136 Ni0.127,FCC + $\mu$,M,CR + A,4.8,,,T,25.0,684.0,1078.0,48.1,,,,,,,,,,,172,other,WROUGHT,,2018
J51,10.1016/j.jallcom.2018.12.040,Co0.318 Cr0.227 Fe1 Mo0.091 Ni0.182,FCC + $\mu$,M,CR + A,70.1,,,T,25.0,261.0,673.0,86.6,,,,,,,,,,,172,other,WROUGHT,,2018
J51,10.1016/j.jallcom.2018.12.040,Co0.327 Cr0.227 Fe1 Mo0.136 Ni0.127,FCC + $\mu$,M,CR + A,5.4,,,T,25.0,506.0,933.0,59.3,,,,,,,,,,,172,other,WROUGHT,,2018
J51,10.1016/j.jallcom.2018.12.040,Co0.318 Cr0.227 Fe1 Mo0.091 Ni0.182,FCC + $\mu$,M,CR + A,136.5,,,T,25.0,231.0,638.0,87.2,,,,,,,,,,,172,other,WROUGHT,,2018
J51,10.1016/j.jallcom.2018.12.040,Co0.327 Cr0.227 Fe1 Mo0.136 Ni0.127,FCC + $\mu$,M,CR + A,120.6,,,T,25.0,296.0,693.0,63.2,,,,,,,,,,,172,other,WROUGHT,,2018
J52,10.1016/j.jallcom.2018.11.181,Co1 Cr1 Fe1 Mn1 Ni1,FCC,S,A,300.0,,,,,,,,,,,,,,,,,,173,FCC,ANNEAL,FCC,2018
J52,10.1016/j.jallcom.2018.11.181,Co1 Cr1 Fe1 Mn1 Ni1,FCC,S,SPS,4.2,,,,,,,,,,,,,correct processing to SPS,,,,,173,FCC,POWDER,FCC,2018
J52,10.1016/j.jallcom.2018.11.181,Co1 Cr1 Fe1 Mn1 Ni1,FCC,S,SPS,1.3,,,,,,,,,,,,,,,,,,173,FCC,POWDER,FCC,2018
J53,10.1007/s10853-018-03280-z,Mo1 Nb1 Ta1 W1,BCC,S,SPS,,,,C,25.0,1217.0,,7.6,3.8,,,,,both strains recorded,,,,,174,BCC,POWDER,BCC,
J53,10.1007/s10853-018-03280-z,Mo1 Nb1 Si0.25 Ta1 W1,BCC + Silicide,M,SPS,,,,C,25.0,1826.0,,16.7,10.5,,,,,both strains recorded,,,,,174,other,POWDER,,
J53,10.1007/s10853-018-03280-z,Mo1 Nb1 Si0.5 Ta1 W1,BCC + Silicide,M,SPS,,,,C,25.0,1883.0,,11.0,5.8,,,,,both strains recorded,,,,,174,other,POWDER,,
J53,10.1007/s10853-018-03280-z,Mo1 Nb1 Si0.75 Ta1 W1,BCC + Silicide,M,SPS,,,,C,25.0,2483.0,,6.3,1.6,,,,,both strains recorded,,,,,174,other,POWDER,,
J53,10.1007/s10853-018-03280-z,Mo1 Nb1 Si0.25 Ta1 W1,BCC + Silicide,M,SPS,,,,C,1200.0,1071.0,,22.5,13.11,,,,,Added values for NbTaWMoSi0.25 compression values at 1200 C; both strains recorded,,,,,174,other,POWDER,,
J54,10.1007/s11665-019-04003-4,Cr1 Cu1 Fe1 Mn1 Ni1,FCC + BCC,M,AC,,,,T,25.0,615.0,950.0,14.0,,,,,,,,,,,175,other,CAST,,
J54,10.1007/s11665-019-04003-4,Cr1 Cu1 Fe1 Mn1 Ni1,FCC + BCC,M,A,,,,,,,,,,,,,,,,,,,175,other,ANNEAL,,
J54,10.1007/s11665-019-04003-4,Cr1 Cu1 Fe1 Mn1 Ni1,FCC + BCC + $\sigma$,M,A,,,,,,,,,,,,,,,,,,,175,other,ANNEAL,,
J56,10.1016/j.jallcom.2018.11.111,Mo1 Nb1 Re0.5 W1,BCC,S,AC,,,473.0,C,25.0,896.0,,10.4,7.08,,,,,added hardness vickers; changed fracture strain to total strain from stress strain plot,,,,,176,BCC,CAST,BCC,2018
J56,10.1016/j.jallcom.2018.11.111,C0.2 Mo1 Nb1 Re0.5 Ta0.2 W1,BCC + MC,M,AC,,,510.0,C,25.0,1074.0,,12.1,8.33,,,,,added hardness vickers; changed fracture strain to total strain from stress strain plot,,,,,176,other,CAST,,2018
J56,10.1016/j.jallcom.2018.11.111,C0.4 Mo1 Nb1 Re0.5 Ta0.4 W1,BCC + MC,M,AC,,,558.0,C,25.0,1144.0,,12.7,8.81,,,,,added hardness vickers; changed fracture strain to total strain from stress strain plot,,,,,176,other,CAST,,2018
J56,10.1016/j.jallcom.2018.11.111,C0.5 Mo1 Nb1 Re0.5 Ta0.5 W1,BCC + MC,M,AC,,,583.0,C,25.0,1202.0,,14.2,10.25,,,,,added hardness vickers; changed fracture strain to total strain from stress strain plot,,,,,176,other,CAST,,2018
J56,10.1016/j.jallcom.2018.11.111,C0.6 Mo1 Nb1 Re0.5 Ta0.6 W1,BCC + MC,M,AC,,,615.0,C,25.0,1241.0,,13.8,9.64,,,,,added hardness vickers; changed fracture strain to total strain from stress strain plot,,,,,176,other,CAST,,2018
J58,10.3390/e21020169,Al0.278 Co0.694 Cr0.222 Fe0.417 Ni1 Ti0.167,FCC,S,A,,,,T,23.0,520.0,696.0,49.0,,,,,,reported total elongation ,,,,,177,FCC,ANNEAL,FCC,
J58,10.3390/e21020169,Al0.278 Co0.694 Cr0.222 Fe0.417 Ni1 Ti0.167,FCC,S,A,,,,T,600.0,470.0,561.0,11.0,,,,,,,,,,,177,FCC,ANNEAL,FCC,
J58,10.3390/e21020169,Al0.278 Co0.694 Cr0.222 Fe0.417 Ni1 Ti0.167,FCC,S,A,,,,T,700.0,461.0,560.0,9.0,,,,,,,,,,,177,FCC,ANNEAL,FCC,
J58,10.3390/e21020169,Al0.278 Co0.694 Cr0.222 Fe0.417 Ni1 Ti0.167,FCC,S,A,,,,T,800.0,445.0,536.0,6.0,,,,,,,,,,,177,FCC,ANNEAL,FCC,
J58,10.3390/e21020169,Al0.278 Co0.694 Cr0.222 Fe0.417 Ni1 Ti0.167,FCC,S,A,,,,T,900.0,219.0,312.0,8.0,,,,,,,,,,,177,FCC,ANNEAL,FCC,
J58,10.3390/e21020169,Al0.278 Co0.694 Cr0.222 Fe0.417 Ni1 Ti0.167,FCC,S,DC + A,,,,T,23.0,627.0,1197.0,27.0,,,,,,Directional Casting,,,,,177,FCC,ANNEAL,FCC,
J58,10.3390/e21020169,Al0.278 Co0.694 Cr0.222 Fe0.417 Ni1 Ti0.167,FCC,S,DC + A,,,,T,600.0,594.0,1006.0,12.0,,,,,,Directional Casting,,,,,177,FCC,ANNEAL,FCC,
J58,10.3390/e21020169,Al0.278 Co0.694 Cr0.222 Fe0.417 Ni1 Ti0.167,FCC,S,DC + A,,,,T,700.0,547.0,840.0,17.0,,,,,,Directional Casting,,,,,177,FCC,ANNEAL,FCC,
J58,10.3390/e21020169,Al0.278 Co0.694 Cr0.222 Fe0.417 Ni1 Ti0.167,FCC,S,DC + A,,,,T,800.0,399.0,575.0,20.0,,,,,,Directional Casting,,,,,177,FCC,ANNEAL,FCC,
J58,10.3390/e21020169,Al0.278 Co0.694 Cr0.222 Fe0.417 Ni1 Ti0.167,FCC,S,DC + A,,,,T,900.0,243.0,319.0,34.0,,,,,,Directional Casting,,,,,177,FCC,ANNEAL,FCC,
J59,10.1016/j.msea.2018.12.077,Co0.286 Cr0.429 Fe1 Mn0.143 Ni0.714 V0.286,FCC,S,CR + A,8.7,,,T,25.0,401.0,717.0,49.0,,,,,,Added data from Fig 3; total elongation recorded,,,,,178,FCC,WROUGHT,FCC,2018
J59,10.1016/j.msea.2018.12.077,Co0.286 Cr0.429 Fe1 Mn0.143 Ni0.714 V0.286,FCC,S,CR + A,10.4,,,T,25.0,350.0,690.0,50.0,,,,,,Added data from Fig 3; total elongation recorded,,,,,178,FCC,WROUGHT,FCC,2018
J59,10.1016/j.msea.2018.12.077,Co0.286 Cr0.429 Fe1 Mn0.143 Ni0.714 V0.286,FCC,S,CR + A,11.2,,,T,25.0,312.0,660.0,51.0,,,,,,Added data from Fig 3; total elongation recorded,,,,,178,FCC,WROUGHT,FCC,2018
J59,10.1016/j.msea.2018.12.077,Co0.286 Cr0.429 Fe1 Mn0.143 Ni0.714 V0.286,FCC,S,CR + A,48.2,,,T,25.0,240.0,610.0,53.0,,,,,,Added data from Fig 3; total elongation recorded,,,,,178,FCC,WROUGHT,FCC,2018
J59,10.1016/j.msea.2018.12.077,Co0.286 Cr0.429 Fe1 Mn0.143 Ni0.714 V0.286,FCC,S,CR + A,82.7,,,T,25.0,210.0,593.0,52.0,,,,,,,,,,,178,FCC,WROUGHT,FCC,2018
J60,10.1016/j.jallcom.2019.07.195,Co1 Cr1 Fe1 Mn1 Ni1,2FCC,M,SPS,,,410.9,T,25.0,,,,,184.0,,,,Can someone re-review this article. I'm not completely confident in my reporting CHECKED (CF) added hardness in GPA; flexuarl strength isn't yield strength,,,7.5,,180,other,POWDER,Other,2019
J61,10.1016/j.jallcom.2019.07.100,Al1 Co0.5 Cr0.5 Fe0.5 Ni0.5,BCC + B2,M,AC,80.67,,581.7,C,25.0,1241.0,,9.98,,,,,,"Misplaced Elongation values into Young's Modulus, amended",,,,,181,other,CAST,,2019
J61,10.1016/j.jallcom.2019.07.100,Al1 Co0.556 Cr0.556 Fe0.556 Ni0.556 Ti0.111,BCC + B2,M,AC,66.93,,605.5,C,25.0,1324.0,,10.02,,,,,,,,,,,181,other,CAST,,2019
J61,10.1016/j.jallcom.2019.07.100,Al1 Co0.667 Cr0.667 Fe0.667 Ni0.667 Ti0.333,BCC + B2,M,AC,56.27,,641.7,C,25.0,1566.0,,11.85,,,,,,,,,,,181,other,CAST,,2019
J61,10.1016/j.jallcom.2019.07.100,Al1 Co0.833 Cr0.833 Fe0.833 Ni0.833 Ti0.667,BCC + B2,M,AC,49.95,,639.6,C,25.0,1503.0,,7.73,,,,,,,,,,,181,other,CAST,,2019
J61,10.1016/j.jallcom.2019.07.100,Al1 Co1 Cr1 Fe1 Ni1 Ti1,BCC + B2 + Laves,M,AC,30.49,,703.0,C,25.0,1448.0,,6.18,,,,,,,,,,,181,other,CAST,,2019
J61,10.1016/j.jallcom.2019.07.100,Al0.667 Co0.833 Cr0.833 Fe0.833 Ni0.833 Ti1,BCC + B2 + Laves,M,AC,22.03,,856.9,C,25.0,1272.0,,3.15,,,,,,,,,,,181,other,CAST,,2019
J61,10.1016/j.jallcom.2019.07.100,Co1 Cr1 Cu1 Fe1 Ni1 Ti0.8,,,,,,,C,25.0,1042.0,,2.11,,,,,,"Extracted Engineering Values from Table 4, comes from multiple other references",,,,,181,other,,,2019
J61,10.1016/j.jallcom.2019.07.100,Co1 Cr1 Cu1 Fe1 Ni1 Ti1,,,,,,,C,25.0,1272.0,,0.0,,,,,,"Extracted Engineering Values from Table 4, comes from multiple other references",,,,,181,other,,,2019
J61,10.1016/j.jallcom.2019.07.100,Al1 C0.1 Co1 Cr1 Fe1 Ni1,,,,,,,C,25.0,957.0,,10.52,,,,,,"Extracted Engineering Values from Table 4, comes from multiple other references",,,,,181,other,,,2019
J61,10.1016/j.jallcom.2019.07.100,Al1 C0.2 Co1 Cr1 Fe1 Ni1,,,,,,,C,25.0,906.0,,8.68,,,,,,"Extracted Engineering Values from Table 4, comes from multiple other references",,,,,181,other,,,2019