REFERENCE: tag,REFERENCE: doi,FORMULA,PROPERTY: Type of phases,PROPERTY: Single/Multiphase,PROPERTY: synthesis method,PROPERTY: grain size ($\mu$m),PROPERTY: ROM Density (g/cm$^3$),PROPERTY: HV,PROPERTY: Type of test,PROPERTY: Test temperature ($^\circ$C),PROPERTY: YS (MPa),PROPERTY: UTS (MPa),PROPERTY: Elongation (%),PROPERTY: Elongation plastic (%),PROPERTY: Young modulus (GPa),PROPERTY: O content (wppm),PROPERTY: N content (wppm),PROPERTY: C content (wppm),REFERENCE: comment,"Internal Reference # (J4, J90)","J4, J90 Original DOI",PROPERTY: Exp. Density (g/cm$^3$),Unnamed: 22,IDENTIFIER: Reference ID,PROPERTY: BCC/FCC/other,PROPERTY: Processing method,PROPERTY: Microstructure,REFERENCE: year
80,10.1007/s11661-005-0218-9,Al1 Co1 Cr1 Cu1 Fe1 Ni1,FCC+BCC,M,AC,,7.4,,C,600.0,561.0,,,,,,,,,,,,,64,other,CAST,FCC+BCC,
80,10.1007/s11661-005-0218-9,Al1 Co1 Cr1 Cu1 Fe1 Ni1,FCC+BCC,M,AC,,7.4,,C,700.0,307.0,,,,,,,,,,,,,64,other,CAST,FCC+BCC,
80,10.1007/s11661-005-0218-9,Al1 Co1 Cr1 Cu1 Fe1 Ni1,FCC+BCC,M,AC,,7.4,,C,800.0,172.0,,,,,,,,,,,,,64,other,CAST,FCC+BCC,
80,10.1007/s11661-005-0218-9,Al1 Co1 Cr1 Cu1 Fe1 Ni1,FCC+BCC,M,AC,,7.4,,C,900.0,98.0,,,,,,,,,,,,,64,other,CAST,FCC+BCC,
81,10.1016/j.jallcom.2015.11.050,Al1 Cr1 Mo1 Nb1 Ti1,BCC,S,AC,,6.6,,C,25.0,,,,,,92.0,undetectable,,,,,,,65,BCC,CAST,BCC,2015
81,10.1016/j.jallcom.2015.11.050,Al1 Cr1 Mo1 Nb1 Ti1,BCC,S,AC,,6.6,,C,400.0,1080.0,1100.0,0.02,,,92.0,undetectable,,,,,,,65,BCC,CAST,BCC,2015
81,10.1016/j.jallcom.2015.11.050,Al1 Cr1 Mo1 Nb1 Ti1,BCC,S,AC,,6.6,,C,600.0,1060.0,1170.0,0.025,,,92.0,undetectable,,,,,,,65,BCC,CAST,BCC,2015
81,10.1016/j.jallcom.2015.11.050,Al1 Cr1 Mo1 Nb1 Ti1,BCC,S,AC,,6.6,,C,800.0,860.0,1000.0,0.02,,,92.0,undetectable,,,,,,,65,BCC,CAST,BCC,2015
81,10.1016/j.jallcom.2015.11.050,Al1 Cr1 Mo1 Nb1 Ti1,BCC,S,AC,,6.6,,C,1000.0,594.0,630.0,0.15,,,92.0,undetectable,,,,,,,65,BCC,CAST,BCC,2015
81,10.1016/j.jallcom.2015.11.050,Al1 Cr1 Mo1 Nb1 Ti1,BCC,S,AC,,6.6,,C,1200.0,105.0,116.0,0.24,,,92.0,undetectable,,,,,,,65,BCC,CAST,BCC,2015
Couzinie_11,10.1007/s11661-017-4386-1,Al1 Cr1 Mo1 Nb1 Ti1,BCC,S,A,,6.6,,C,600.0,930.0,,,,,92.0,undetectable,,,,,,,67,BCC,ANNEAL,BCC,
Couzinie_11,10.1007/s11661-017-4386-1,Al1 Cr1 Mo1 Nb1 Ti1,BCC,S,A,,6.6,,C,800.0,875.0,,,,,,,,,,,,,67,BCC,ANNEAL,BCC,
Couzinie_11,10.1007/s11661-017-4386-1,Al1 Cr1 Mo1 Nb1 Ti1,BCC,S,A,,6.6,,C,1000.0,550.0,,,,,,,,,,,,,67,BCC,ANNEAL,BCC,
Couzinie_11,10.1007/s11661-017-4386-1,Al1 Cr1 Mo1 Nb1 Ti1,BCC,S,A,,6.6,,C,1200.0,150.0,,,,,,,,,,,,,67,BCC,ANNEAL,BCC,
Couzinie_11,10.1007/s11661-017-4386-1,Al1 Cr1 Mo1 Ti1,BCC,S,A,,6.0,,C,400.0,1070.0,,,,,,,,,,,,,67,BCC,ANNEAL,BCC,
Couzinie_11,10.1007/s11661-017-4386-1,Al1 Cr1 Mo1 Ti1,BCC,S,A,,6.0,,C,600.0,1020.0,,,,,,,,,,,,,67,BCC,ANNEAL,BCC,
Couzinie_11,10.1007/s11661-017-4386-1,Al1 Cr1 Mo1 Ti1,BCC,S,A,,6.0,,C,800.0,875.0,,,,,,,,,,,,,67,BCC,ANNEAL,BCC,
Couzinie_11,10.1007/s11661-017-4386-1,Al1 Cr1 Mo1 Ti1,BCC,S,A,,6.0,,C,1000.0,375.0,,,,,,,,,,,,,67,BCC,ANNEAL,BCC,
Couzinie_11,10.1007/s11661-017-4386-1,Al1 Cr1 Mo1 Ti1,BCC,S,A,,6.0,,C,1200.0,100.0,,,,,,,,,,,,,67,BCC,ANNEAL,BCC,
Couzinie_11,10.1007/s11661-017-4386-1,Al1 Mo1 Nb1 Ti1,BCC,S,A,,6.5,,C,600.0,520.0,,,,,,,,,,,,,67,BCC,ANNEAL,BCC,
Couzinie_11,10.1007/s11661-017-4386-1,Al1 Mo1 Nb1 Ti1,BCC,S,A,,6.5,,C,800.0,500.0,,,,,,,,,,,,,67,BCC,ANNEAL,BCC,
Couzinie_11,10.1007/s11661-017-4386-1,Al1 Mo1 Nb1 Ti1,BCC,S,A,,6.5,,C,1000.0,540.0,,,,,,,,,,,,,67,BCC,ANNEAL,BCC,
Couzinie_11,10.1007/s11661-017-4386-1,Al1 Mo1 Nb1 Ti1,BCC,S,A,,6.5,,C,1200.0,200.0,,,,,,,,,,,,,67,BCC,ANNEAL,BCC,
Couzinie_14,10.1016/j.msea.2017.08.019,Al1 Nb1 Ti1 V1,B2,S,A,,5.5,,C,600.0,780.0,1005.0,,,,,,,,,,,,68,other,ANNEAL,B2,2017
Couzinie_14,10.1016/j.msea.2017.08.019,Al1 Nb1 Ti1 V1,B2,S,A,,5.5,,C,800.0,560.0,700.0,,,,,,,,,,,,68,other,ANNEAL,B2,2017
Couzinie_14,10.1016/j.msea.2017.08.019,Al1 Nb1 Ti1 V1,B2,S,A,,5.5,,C,25.0,1000.0,1280.0,,,,,,,,,,,,68,other,ANNEAL,B2,2017
Couzinie_14,10.1016/j.msea.2017.08.019,Al1 Nb1 Ti1 V1 Zr1,B2+Al3Zr5+Laves,M,A,,5.7,,C,600.0,1155.0,1385.0,,,,,,,,,,,,68,other,ANNEAL,B2+Laves+Sec.,2017
Couzinie_14,10.1016/j.msea.2017.08.019,Al1 Nb1 Ti1 V1 Zr1,B2+Al3Zr5+Laves,M,A,,5.7,,C,800.0,550.0,600.0,,,,,,,,,,,,68,other,ANNEAL,B2+Laves+Sec.,2017
Couzinie_14,10.1016/j.msea.2017.08.019,Al1 Nb1 Ti1 V1 Zr1,B2+Al3Zr5+Laves,M,A,,5.7,,C,25.0,1500.0,1675.0,,,,,,,,,,,,68,other,ANNEAL,B2+Laves+Sec.,2017
Couzinie_14,10.1016/j.msea.2017.08.019,Al1 Nb1 Ti1 V1 Zr0.1,B2+Al3Zr5,M,A,,5.5,,C,600.0,975.0,1085.0,,,,,,,,,,,,68,other,ANNEAL,B2+Sec.,2017
Couzinie_14,10.1016/j.msea.2017.08.019,Al1 Nb1 Ti1 V1 Zr0.1,B2+Al3Zr5,M,A,,5.5,,C,800.0,865.0,920.0,,,,,,,,,,,,68,other,ANNEAL,B2+Sec.,2017
Couzinie_14,10.1016/j.msea.2017.08.019,Al1 Nb1 Ti1 V1 Zr0.1,B2+Al3Zr5,M,A,,5.5,,C,25.0,1290.0,1395.0,,,,,,,,,,,,68,other,ANNEAL,B2+Sec.,2017
Couzinie_14,10.1016/j.msea.2017.08.019,Al1 Nb1 Ti1 V1 Zr0.25,B2+Al3Zr5,M,A,,5.6,,C,600.0,1065.0,1260.0,,,,,,,,,,,,68,other,ANNEAL,B2+Sec.,2017
Couzinie_14,10.1016/j.msea.2017.08.019,Al1 Nb1 Ti1 V1 Zr0.25,B2+Al3Zr5,M,A,,5.6,,C,800.0,855.0,865.0,,,,,,,,,,,,68,other,ANNEAL,B2+Sec.,2017
Couzinie_14,10.1016/j.msea.2017.08.019,Al1 Nb1 Ti1 V1 Zr0.25,B2+Al3Zr5,M,A,,5.6,,C,25.0,1360.0,1480.0,,,,,,,,,,,,68,other,ANNEAL,B2+Sec.,2017
Couzinie_14,10.1016/j.msea.2017.08.019,Al1 Nb1 Ti1 V1 Zr0.5,B2+Al3Zr5+Laves,M,A,,5.6,,C,600.0,1135.0,1425.0,,,,,,,,,,,,68,other,ANNEAL,B2+Laves+Sec.,2017
Couzinie_14,10.1016/j.msea.2017.08.019,Al1 Nb1 Ti1 V1 Zr0.5,B2+Al3Zr5+Laves,M,A,,5.6,,C,800.0,675.0,740.0,,,,,,,,,,,,68,other,ANNEAL,B2+Laves+Sec.,2017
Couzinie_14,10.1016/j.msea.2017.08.019,Al1 Nb1 Ti1 V1 Zr0.5,B2+Al3Zr5+Laves,M,A,,5.6,,C,25.0,1485.0,,,,,,,,,,,,,68,other,ANNEAL,B2+Laves+Sec.,2017
Couzinie_14,10.1016/j.msea.2017.08.019,Al0.667 Nb0.667 Ti0.667 V0.667 Zr1,B2+Al3Zr5+Laves,M,A,,5.8,,C,600.0,1195.0,1195.0,,,,,,,,,,,,68,other,ANNEAL,B2+Laves+Sec.,2017
Couzinie_14,10.1016/j.msea.2017.08.019,Al0.667 Nb0.667 Ti0.667 V0.667 Zr1,B2+Al3Zr5+Laves,M,A,,5.8,,C,800.0,180.0,395.0,,,,,,,,,,,,68,other,ANNEAL,B2+Laves+Sec.,2017
Couzinie_14,10.1016/j.msea.2017.08.019,Al0.667 Nb0.667 Ti0.667 V0.667 Zr1,B2+Al3Zr5+Laves,M,A,,5.8,,C,25.0,1535.0,1550.0,,,,,,,,,,,,68,other,ANNEAL,B2+Laves+Sec.,2017
Couzinie_16,10.1007/s11665-017-2799-z,Co1 Cr1 Mo1 Nb1,BCC+Laves,M,AC,,8.8,,C,25.0,,1419.6,,,,,,,,,,,,69,other,CAST,BCC+Laves,
Couzinie_16,10.1007/s11665-017-2799-z,Co1 Cr1 Mo1 Nb1 Ti1,BCC+Laves,M,AC,,7.8,,C,25.0,,1096.8,,,,,,,,,,,,69,other,CAST,BCC+Laves,
Couzinie_16,10.1007/s11665-017-2799-z,Co1 Cr1 Mo1 Nb1 Ti0.2,BCC+Laves,M,AC,,8.5,,C,25.0,,1905.6,,,,,,,,,,,,69,other,CAST,BCC+Laves,
Couzinie_16,10.1007/s11665-017-2799-z,Co1 Cr1 Mo1 Nb1 Ti0.4,BCC,S,AC,,8.3,,C,25.0,,1771.3,,,220.1,,,,,,,,,69,BCC,CAST,BCC,
Couzinie_16,10.1007/s11665-017-2799-z,Co1 Cr1 Mo1 Nb1 Ti0.5,BCC+Laves,M,AC,,8.2,,C,25.0,,1609.2,,,,,,,,,,,,69,other,CAST,BCC+Laves,
Couzinie_17,10.1016/j.ijrmhm.2014.07.009,Cr1 Hf1 Nb1 Ti1 Zr1,BCC+Laves,M,A,,8.2,,C,25.0,1457.0,1908.0,,,,,,,,,,,,70,other,ANNEAL,BCC+Laves,2014
Couzinie_17,10.1016/j.ijrmhm.2014.07.009,Cr1 Hf1 Nb1 Ti1 Zr1,BCC+Laves,M,A,,8.2,,C,25.0,1420.0,1885.0,4.2,,,,,,,,,,,70,other,ANNEAL,BCC+Laves,2014
Couzinie_17,10.1016/j.ijrmhm.2014.07.009,Cr1 Hf1 Nb1 Ti1 Zr1,BCC+Laves,M,A,,8.2,,C,25.0,1328.0,1884.0,,,,,,,,,,,,70,other,ANNEAL,BCC+Laves,2014
Couzinie_17,10.1016/j.ijrmhm.2014.07.009,Cr1 Hf1 Nb1 Ti1 Zr1,BCC+Laves,M,A,,8.2,,C,25.0,1322.0,1726.0,,,,,,,,,,,,70,other,ANNEAL,BCC+Laves,2014
Couzinie_17,10.1016/j.ijrmhm.2014.07.009,Cr1 Hf1 Nb1 Ti1 Zr1,BCC+Laves,M,AC,,8.2,,C,25.0,1375.0,2130.0,3.0,,,,,,,,,,,70,other,CAST,BCC+Laves,2014
Couzinie_17,10.1016/j.ijrmhm.2014.07.009,Hf1 Nb1 Ti1 V1 Zr1,BCC+Laves,M,A,,8.0,,C,25.0,1157.0,1468.0,,,,,,,,,,,,70,other,ANNEAL,BCC+Laves,2014
Couzinie_17,10.1016/j.ijrmhm.2014.07.009,Hf1 Nb1 Ti1 V1 Zr1,BCC,S,A,,8.0,,C,25.0,1253.0,1393.0,,,99.0,,,,,,,,,70,BCC,ANNEAL,BCC,2014
Couzinie_17,10.1016/j.ijrmhm.2014.07.009,Hf1 Nb1 Ti1 V1 Zr1,BCC,S,A,,8.0,,C,25.0,1140.0,1463.0,,,99.0,,,,,,,,,70,BCC,ANNEAL,BCC,2014
Couzinie_17,10.1016/j.ijrmhm.2014.07.009,Hf1 Nb1 Ti1 V1 Zr1,BCC,S,A,,8.0,,C,25.0,1120.0,1376.0,30.0,,99.0,,,,,,,,,70,BCC,ANNEAL,BCC,2014
Couzinie_17,10.1016/j.ijrmhm.2014.07.009,Hf1 Nb1 Ti1 V1 Zr1,BCC+Laves,M,AC,,8.0,,C,25.0,1170.0,1463.0,29.6,,,,,,,,,,,70,other,CAST,BCC+Laves,2014
Couzinie_20,10.1016/j.matchemphys.2017.06.054,Cr1 Ta1 Ti0.17 V1 W1,BCC+Laves,M,SPS,,12.5,715.0,C,25.0,2034.0,,1.5,,,,,,"Jasper: Added HV values from Fig 5, corrected alloy formula to reflect what is stated in the article",,,,,71,other,POWDER,BCC+Laves,2017
Couzinie_20,10.1016/j.matchemphys.2017.06.054,Cr1 Ta1 Ti0.17 V1 W1,BCC+Laves,M,SPS,,12.5,,C,1200.0,750.0,,1.5,,,,,,,,,,,71,other,POWDER,BCC+Laves,2017
Couzinie_20,10.1016/j.matchemphys.2017.06.054,Cr1 Ta1 Ti0.3 V1 W1,BCC+Laves,M,SPS,,12.2,780.0,C,25.0,2050.0,,1.5,,,,,,,,,,,71,other,POWDER,BCC+Laves,2017
Couzinie_20,10.1016/j.matchemphys.2017.06.054,Cr1 Ta1 Ti0.3 V1 W1,BCC+Laves,M,SPS,,12.2,,C,1200.0,586.0,,1.5,,,,,,,,,,,71,other,POWDER,BCC+Laves,2017
Couzinie_20,10.1016/j.matchemphys.2017.06.054,Cr1 Ta1 V1 W1,BCC+Laves,M,SPS,,12.9,715.0,C,25.0,2327.0,,1.5,,,,,,,,,,,71,other,POWDER,BCC+Laves,2017
Couzinie_20,10.1016/j.matchemphys.2017.06.054,Cr1 Ta1 V1 W1,BCC+Laves,M,SPS,,12.9,,C,1200.0,979.0,,1.5,,,,,,,,,,,71,other,POWDER,BCC+Laves,2017
Couzinie_21,10.1080/14786435.2015.1028506,Hf0.26 Nb1 Ta1 Ti0.578 Zr0.416,BCC,S,AC,,10.4,,C,60.0,795.0,,,,125.0,,,,,,,,,72,BCC,CAST,BCC,2015
Couzinie_21,10.1080/14786435.2015.1028506,Hf0.26 Nb1 Ta1 Ti0.578 Zr0.416,BCC,S,AC,,10.4,,C,100.0,765.0,,,,,,,,,,,,,72,BCC,CAST,BCC,2015
Couzinie_21,10.1080/14786435.2015.1028506,Hf0.26 Nb1 Ta1 Ti0.578 Zr0.416,BCC,S,AC,,10.4,,C,200.0,650.0,,,,,,,,,,,,,72,BCC,CAST,BCC,2015
Couzinie_21,10.1080/14786435.2015.1028506,Hf0.26 Nb1 Ta1 Ti0.578 Zr0.416,BCC,S,AC,,10.4,,C,300.0,590.0,,,,,,,,,,,,,72,BCC,CAST,BCC,2015
Couzinie_21,10.1080/14786435.2015.1028506,Hf0.26 Nb1 Ta1 Ti0.578 Zr0.416,BCC,S,AC,,10.4,,C,25.0,845.0,,,,,,,,,,,,,72,BCC,CAST,BCC,2015
Couzinie_22,10.1016/j.jallcom.2015.11.091,Hf0.5 Mo0.5 Nb1 Si0.1 Ti1 Zr1,BCC+laves,M,AC,,7.7,442.0,C,25.0,1350.0,2150.0,,28.0,,,,,,,,,,73,other,CAST,BCC+Sec.,2015
Couzinie_22,10.1016/j.jallcom.2015.11.091,Hf0.5 Mo0.5 Nb1 Si0.3 Ti1 Zr1,BCC+laves,M,AC,,7.5,494.0,C,25.0,1370.0,1950.0,,23.0,,,,,,,,,,73,other,CAST,BCC+Sec.,2015
Couzinie_22,10.1016/j.jallcom.2015.11.091,Hf0.5 Mo0.5 Nb1 Si0.5 Ti1 Zr1,BCC+laves,M,AC,,7.2,524.0,C,25.0,1600.0,1900.0,,23.0,,,,,,,,,,73,other,CAST,BCC+Sec.,2015
Couzinie_22,10.1016/j.jallcom.2015.11.091,Hf0.5 Mo0.5 Nb1 Si0.7 Ti1 Zr1,BCC+laves,M,AC,,7.0,580.0,C,25.0,1550.0,1900.0,,12.0,,,,,,,,,,73,other,CAST,BCC+Sec.,2015
Couzinie_22,10.1016/j.jallcom.2015.11.091,Hf0.5 Mo0.5 Nb1 Si0.9 Ti1 Zr1,BCC+laves,M,AC,,6.8,640.0,C,25.0,1650.0,2000.0,,9.0,,,,,,,,,,73,other,CAST,BCC+Sec.,2015
Couzinie_22,10.1016/j.jallcom.2015.11.091,Hf0.5 Mo0.5 Nb1 Ti1 Zr1,BCC+laves,S,AC,,7.9,400.0,C,25.0,1150.0,1500.0,,25.0,123.1,,,,,,,,,73,other,CAST,BCC+Sec.,2015
Couzinie_24,10.1016/j.msea.2017.10.073,Hf0.5 Nb0.667 Ta0.333 Ti1 Zr0.833,BCC,S,CR,,8.4,,C,-268.8,2250.0,,,,103.1,,,,,,,,,74,BCC,WROUGHT,BCC,2017
Couzinie_24,10.1016/j.msea.2017.10.073,Hf0.5 Nb0.667 Ta0.333 Ti1 Zr0.833,BCC,S,CR,,8.4,,C,-268.8,2210.0,,,,103.1,,,,,,,,,74,BCC,WROUGHT,BCC,2017
Couzinie_24,10.1016/j.msea.2017.10.073,Hf0.5 Nb0.667 Ta0.333 Ti1 Zr0.833,BCC,S,CR,,8.4,,C,-196.0,1880.0,,,,,,,,,,,,,74,BCC,WROUGHT,BCC,2017
Couzinie_24,10.1016/j.msea.2017.10.073,Hf0.5 Nb0.667 Ta0.333 Ti1 Zr0.833,BCC,S,CR,,8.4,,C,-196.0,1750.0,,,,,,,,,,,,,74,BCC,WROUGHT,BCC,2017
Couzinie_24,10.1016/j.msea.2017.10.073,Hf0.5 Nb0.667 Ta0.333 Ti1 Zr0.833,BCC,S,CR,,8.4,,C,-153.0,1640.0,,,,,,,,,,,,,74,BCC,WROUGHT,BCC,2017
Couzinie_24,10.1016/j.msea.2017.10.073,Hf0.5 Nb0.667 Ta0.333 Ti1 Zr0.833,BCC,S,CR,,8.4,,C,-153.0,1550.0,,,,,,,,,,,,,74,BCC,WROUGHT,BCC,2017
Couzinie_24,10.1016/j.msea.2017.10.073,Hf0.5 Nb0.667 Ta0.333 Ti1 Zr0.833,BCC,S,CR,,8.4,,C,-103.0,1380.0,,,,,,,,,,,,,74,BCC,WROUGHT,BCC,2017
Couzinie_24,10.1016/j.msea.2017.10.073,Hf0.5 Nb0.667 Ta0.333 Ti1 Zr0.833,BCC,S,CR,,8.4,,C,-103.0,1370.0,,,,,,,,,,,,,74,BCC,WROUGHT,BCC,2017
Couzinie_24,10.1016/j.msea.2017.10.073,Hf0.5 Nb0.667 Ta0.333 Ti1 Zr0.833,BCC,S,CR,,8.4,,C,-43.0,1200.0,,,,,,,,,,,,,74,BCC,WROUGHT,BCC,2017
Couzinie_24,10.1016/j.msea.2017.10.073,Hf0.5 Nb0.667 Ta0.333 Ti1 Zr0.833,BCC,S,CR,,8.4,,C,-43.0,1180.0,,,,,,,,,,,,,74,BCC,WROUGHT,BCC,2017
Couzinie_24,10.1016/j.msea.2017.10.073,Hf0.5 Nb0.667 Ta0.333 Ti1 Zr0.833,BCC,S,CR,,8.4,,C,72.0,1040.0,,,,,,,,,,,,,74,BCC,WROUGHT,BCC,2017
Couzinie_24,10.1016/j.msea.2017.10.073,Hf0.5 Nb0.667 Ta0.333 Ti1 Zr0.833,BCC,S,CR,,8.4,,C,72.0,1020.0,,,,,,,,,,,,,74,BCC,WROUGHT,BCC,2017
Couzinie_24,10.1016/j.msea.2017.10.073,Hf0.5 Nb0.667 Ta0.333 Ti1 Zr0.833,BCC,S,CR,,8.4,,C,25.0,1150.0,,,,,,,,,,,,,74,BCC,WROUGHT,BCC,2017
Couzinie_24,10.1016/j.msea.2017.10.073,Hf0.5 Nb0.667 Ta0.333 Ti1 Zr0.833,BCC,S,CR,,8.4,,C,25.0,1100.0,,,,,,,,,,,,,74,BCC,WROUGHT,BCC,2017
Couzinie_24,10.1016/j.msea.2017.10.073,Hf0.5 Nb0.667 Ta0.333 Ti1 Zr0.833,BCC,S,CR+A,,8.4,,C,-268.8,2390.0,,,,103.1,,,,,,,,,74,BCC,WROUGHT,BCC,2017
Couzinie_24,10.1016/j.msea.2017.10.073,Hf0.5 Nb0.667 Ta0.333 Ti1 Zr0.833,BCC,S,CR+A,,8.4,,C,-196.0,1920.0,,,,,,,,,,,,,74,BCC,WROUGHT,BCC,2017
Couzinie_24,10.1016/j.msea.2017.10.073,Hf0.5 Nb0.667 Ta0.333 Ti1 Zr0.833,BCC,S,CR+A,,8.4,,C,-153.0,1370.0,,,,,,,,,,,,,74,BCC,WROUGHT,BCC,2017
Couzinie_24,10.1016/j.msea.2017.10.073,Hf0.5 Nb0.667 Ta0.333 Ti1 Zr0.833,BCC,S,CR+A,,8.4,,C,-103.0,1250.0,,,,,,,,,,,,,74,BCC,WROUGHT,BCC,2017
Couzinie_24,10.1016/j.msea.2017.10.073,Hf0.5 Nb0.667 Ta0.333 Ti1 Zr0.833,BCC,S,CR+A,,8.4,,C,-43.0,1020.0,,,,,,,,,,,,,74,BCC,WROUGHT,BCC,2017
Couzinie_24,10.1016/j.msea.2017.10.073,Hf0.5 Nb0.667 Ta0.333 Ti1 Zr0.833,BCC,S,CR+A,,8.4,,C,72.0,640.0,,,,,,,,,,,,,74,BCC,WROUGHT,BCC,2017
Couzinie_24,10.1016/j.msea.2017.10.073,Hf0.5 Nb0.667 Ta0.333 Ti1 Zr0.833,BCC,S,CR+A,,8.4,,C,25.0,890.0,,,,,,,,,,,,,74,BCC,WROUGHT,BCC,2017
Couzinie_25,10.1016/j.matlet.2016.03.133,Hf1 Mo0.25 Nb1 Ta1 Ti1 Zr1,BCC,S,AC,,9.9,,C,25.0,1112.0,,,,121.0,,,,,,,,,75,BCC,CAST,BCC,2016
Couzinie_25,10.1016/j.matlet.2016.03.133,Hf1 Mo0.5 Nb1 Ta1 Ti1 Zr1,BCC,S,AC,,9.9,,C,25.0,1317.0,,,,130.5,,,,,,,,,75,BCC,CAST,BCC,2016
Couzinie_25,10.1016/j.matlet.2016.03.133,Hf1 Mo0.75 Nb1 Ta1 Ti1 Zr1,BCC,S,AC,,9.9,,C,25.0,1373.0,,,,139.1,,,,,,,,,75,BCC,CAST,BCC,2016
Couzinie_25,10.1016/j.matlet.2016.03.133,Hf1 Mo1 Nb1 Ta1 Ti1 Zr1,BCC,S,AC,,9.9,,C,25.0,1512.0,1800.0,,,147.0,,,,,,,,,75,BCC,CAST,BCC,2016
Couzinie_25,10.1016/j.matlet.2016.03.133,Hf1 Nb1 Ta1 Ti1 Zr1,BCC,S,AC,,9.9,,C,25.0,1015.0,,,,110.6,,,,,,,,,75,BCC,CAST,BCC,2016
Couzinie_26,10.1016/j.jallcom.2016.10.014,Hf1 Mo0.5 Nb1 Si0.3 Ti1 V0.5,BCC+M5Si3,M,AC,,8.5,,C,1000.0,398.0,430.0,,,,,,,,,,,,76,other,CAST,BCC+Sec.,2016
Couzinie_26,10.1016/j.jallcom.2016.10.014,Hf1 Mo0.5 Nb1 Si0.3 Ti1 V0.5,BCC+M5Si3,M,AC,,8.5,,C,25.0,1617.0,2016.0,,,,,,,,,,,,76,other,CAST,BCC+Sec.,2016
Couzinie_26,10.1016/j.jallcom.2016.10.014,Hf1 Mo0.5 Nb1 Si0.3 Ti1 V0.5,BCC+M5Si3,M,AC,,8.5,,C,1200.0,166.0,187.0,,,,,,,,,,,,76,other,CAST,BCC+Sec.,2016
Couzinie_26,10.1016/j.jallcom.2016.10.014,Hf1 Mo0.5 Nb1 Si0.5 Ti1 V0.5,BCC+M5Si3,M,AC,,8.2,,C,1000.0,614.0,696.0,,,,,,,,,,,,76,other,CAST,BCC+Sec.,2016
Couzinie_26,10.1016/j.jallcom.2016.10.014,Hf1 Mo0.5 Nb1 Si0.5 Ti1 V0.5,BCC+M5Si3,M,AC,,8.2,,C,25.0,1787.0,2052.0,,,,,,,,,,,,76,other,CAST,BCC+Sec.,2016
Couzinie_26,10.1016/j.jallcom.2016.10.014,Hf1 Mo0.5 Nb1 Si0.5 Ti1 V0.5,BCC+M5Si3,M,AC,,8.2,,C,1200.0,188.0,219.0,,,,,,,,,,,,76,other,CAST,BCC+Sec.,2016
Couzinie_26,10.1016/j.jallcom.2016.10.014,Hf1 Mo0.5 Nb1 Si0.7 Ti1 V0.5,BCC+M5Si3,M,AC,,7.9,,C,1000.0,673.0,741.0,,,,,,,,,,,,76,other,CAST,BCC+Sec.,2016
Couzinie_26,10.1016/j.jallcom.2016.10.014,Hf1 Mo0.5 Nb1 Si0.7 Ti1 V0.5,BCC+M5Si3,M,AC,,7.9,,C,25.0,2134.0,2242.0,,,,,,,,,,,,76,other,CAST,BCC+Sec.,2016
Couzinie_26,10.1016/j.jallcom.2016.10.014,Hf1 Mo0.5 Nb1 Si0.7 Ti1 V0.5,BCC+M5Si3,M,AC,,7.9,,C,1200.0,235.0,268.0,,,,,,,,,,,,76,other,CAST,BCC+Sec.,2016
Couzinie_26,10.1016/j.jallcom.2016.10.014,Hf1 Mo0.5 Nb1 Ti1 V0.5,BCC,S,AC,,9.0,,C,1000.0,368.0,394.0,,,131.9,,,,,,,,,76,BCC,CAST,BCC,2016
Couzinie_26,10.1016/j.jallcom.2016.10.014,Hf1 Mo0.5 Nb1 Ti1 V0.5,BCC,S,AC,,9.0,,C,1200.0,60.0,,,,,,,,,,,,,76,BCC,CAST,BCC,2016
Couzinie_26,10.1016/j.jallcom.2016.10.014,Hf1 Mo0.5 Nb1 Ti1 V0.5,BCC,S,AC,,9.0,,C,25.0,1260.0,,,,,,,,,,,,,76,BCC,CAST,BCC,2016
Couzinie_29,10.1080/21663831.2016.1221861,Hf0.787 Nb0.142 Ta0.142 Ti1 Zr0.787,BCC,S,CR+A,,8.5,,T,25.0,540.0,995.0,,,95.2,,,,,,,,,77,BCC,WROUGHT,BCC,2016
Couzinie_3,10.1016/j.matdes.2017.11.033,Al0.25 Nb1 Ta1 Ti1 Zr1,BCC+B2,M,HIP+A,,8.6,,C,1000.0,366.0,408.0,,,,,,,,,,,,78,other,OTHER,BCC+B2,2017
Couzinie_3,10.1016/j.matdes.2017.11.033,Al0.25 Nb1 Ta1 Ti1 Zr1,BCC+B2,M,HIP+A,,8.6,,C,25.0,1745.0,1830.0,,,,,,,,,,,,78,other,OTHER,BCC+B2,2017
Couzinie_3,10.1016/j.matdes.2017.11.033,Al0.5 Mo0.5 Nb1 Ta0.5 Ti1 Zr1,BCC+B2,M,HIP+A,,7.6,,C,1000.0,579.0,646.0,,,,,,,,,,,,78,other,OTHER,BCC+B2,2017
Couzinie_3,10.1016/j.matdes.2017.11.033,Al0.5 Mo0.5 Nb1 Ta0.5 Ti1 Zr1,BCC+B2,M,HIP+A,,7.6,,C,25.0,2350.0,2460.0,,,,,,,,,,,,78,other,OTHER,BCC+B2,2017
Couzinie_3,10.1016/j.matdes.2017.11.033,Al1 Mo0.5 Nb1 Ta0.5 Ti1 Zr1,BCC+B2,M,HIP+A,,7.1,,C,1000.0,745.0,792.0,,,,,,,,,,,,78,other,OTHER,BCC+B2,2017
Couzinie_3,10.1016/j.matdes.2017.11.033,Al1 Mo0.5 Nb1 Ta0.5 Ti1 Zr1,BCC+B2,M,HIP+A,,7.1,,C,25.0,2197.0,2370.0,,,,,,,,,,,,78,other,OTHER,BCC+B2,2017
Couzinie_3,10.1016/j.matdes.2017.11.033,Al1 Mo0.5 Nb1 Ta0.5 Ti1 Zr0.5,B2,S,HIP+A,,7.2,,C,1000.0,935.0,1019.0,,,,,,,,,,,,78,other,OTHER,B2,2017
Couzinie_3,10.1016/j.matdes.2017.11.033,Al1 Mo0.5 Nb1 Ta0.5 Ti1 Zr0.5,B2,S,HIP+A,,7.2,,C,25.0,,1320.0,,,,,,,,,,,,78,other,OTHER,B2,2017
Couzinie_3,10.1016/j.matdes.2017.11.033,Al1 Nb1 Ta0.5 Ti1 Zr0.5,B2,S,HIP+A,,6.9,,C,1000.0,535.0,542.0,,,,,,,,,,,,78,other,OTHER,B2,2017
Couzinie_3,10.1016/j.matdes.2017.11.033,Al1 Nb1 Ta0.5 Ti1 Zr0.5,B2,S,HIP+A,,6.9,,C,25.0,1352.0,1357.0,,,,,,,,,,,,78,other,OTHER,B2,2017
Couzinie_31,10.4028/www.scientific.net/MSF.849.76,Hf1 Nb1 Si0.5 Ti1 V1 Zr1,BCC+Laves+M5Si3,M,A,,7.5,,C,400.0,1273.0,1335.0,14.5,,,,,,,,,,,79,other,ANNEAL,BCC+Laves+Sec.,
Couzinie_31,10.4028/www.scientific.net/MSF.849.76,Hf1 Nb1 Si0.5 Ti1 V1 Zr1,BCC+Laves+M5Si3,M,A,,7.5,,C,600.0,597.0,651.0,50.0,,,,,,,,,,,79,other,ANNEAL,BCC+Laves+Sec.,
Couzinie_31,10.4028/www.scientific.net/MSF.849.76,Hf1 Nb1 Si0.5 Ti1 V1 Zr1,BCC+Laves+M5Si3,M,A,,7.5,,C,800.0,102.0,107.0,50.0,,,,,,,,,,,79,other,ANNEAL,BCC+Laves+Sec.,
Couzinie_31,10.4028/www.scientific.net/MSF.849.76,Hf1 Nb1 Si0.5 Ti1 V1 Zr1,BCC+Laves+M5Si3,M,A,,7.5,,C,25.0,1483.0,1611.0,9.5,,,,,,,,,,,79,other,ANNEAL,BCC+Laves+Sec.,
Couzinie_31,10.4028/www.scientific.net/MSF.849.76,Hf1 Nb1 Si0.5 Ti1 V1 Zr1,BCC+Laves+M5Si3,M,AC,,7.5,,C,600.0,920.0,1252.0,50.0,,,,,,,,,,,79,other,CAST,BCC+Laves+Sec.,
Couzinie_31,10.4028/www.scientific.net/MSF.849.76,Hf1 Nb1 Si0.5 Ti1 V1 Zr1,BCC+Laves+M5Si3,M,AC,,7.5,,C,800.0,371.0,427.0,50.0,,,,,,,,,,,79,other,CAST,BCC+Laves+Sec.,
Couzinie_31,10.4028/www.scientific.net/MSF.849.76,Hf1 Nb1 Si0.5 Ti1 V1 Zr1,BCC+Laves+M5Si3,M,AC,,7.5,,C,25.0,1540.0,1643.0,16.8,,,,,,,,,,,79,other,CAST,BCC+Laves+Sec.,
Couzinie_32,10.1016/j.actamat.2017.09.035,Hf1 Nb1 Ta1 Ti1 Zr1,BCC,S,SPD,0.05,9.9,420.0,T,25.0,1900.0,,7.9,,110.6,,,,,,,,,80,BCC,OTHER,BCC,2017
Couzinie_32,10.1016/j.actamat.2017.09.035,Hf1 Nb1 Ta1 Ti1 Zr1,BCC+HCP,M,SPD+A,0.05,9.9,530.0,T,25.0,1520.0,,1.7,,,,,,,,,,,80,other,OTHER,BCC+HCP,2017
Couzinie_32,10.1016/j.actamat.2017.09.035,Hf1 Nb1 Ta1 Ti1 Zr1,BCC+BCC+HCP,M,SPD+A,0.1,9.9,340.0,T,25.0,795.0,,5.0,,,,,,,,,,,80,other,OTHER,BCC+BCC+HCP,2017
Couzinie_32,10.1016/j.actamat.2017.09.035,Hf1 Nb1 Ta1 Ti1 Zr1,BCC,S,CR+A,100.0,9.9,309.0,T,25.0,830.0,840.0,9.2,,110.6,,,,,,,,,80,BCC,WROUGHT,BCC,2017
Couzinie_33,10.1016/j.jallcom.2015.07.209,Hf1 Nb1 Ta1 Ti1 Zr1,BCC,S,CR,,9.9,366.0,T,25.0,1202.0,1295.0,4.7,,110.6,,,,,,,,,81,BCC,WROUGHT,BCC,2015
Couzinie_33,10.1016/j.jallcom.2015.07.209,Hf1 Nb1 Ta1 Ti1 Zr1,BCC+BCC,M,CR+A,,9.9,,T,25.0,1303.0,1334.0,,,,,,,,,,,,81,other,WROUGHT,BCC+BCC,2015