REFERENCE: tag,REFERENCE: doi,FORMULA,PROPERTY: Type of phases,PROPERTY: Single/Multiphase,PROPERTY: synthesis method,PROPERTY: grain size ($\mu$m),PROPERTY: ROM Density (g/cm$^3$),PROPERTY: HV,PROPERTY: Type of test,PROPERTY: Test temperature ($^\circ$C),PROPERTY: YS (MPa),PROPERTY: UTS (MPa),PROPERTY: Elongation (%),PROPERTY: Elongation plastic (%),PROPERTY: Young modulus (GPa),PROPERTY: O content (wppm),PROPERTY: N content (wppm),PROPERTY: C content (wppm),REFERENCE: comment,"Internal Reference # (J4, J90)","J4, J90 Original DOI",PROPERTY: Exp. Density (g/cm$^3$),Unnamed: 22,IDENTIFIER: Reference ID,PROPERTY: BCC/FCC/other,PROPERTY: Processing method,PROPERTY: Microstructure,REFERENCE: year
J4,10.1016/j.matchar.2018.06.036,Al0.304 Co1 Cr1 Fe1 Ni1,FCC,S,Aged,,,,,,,,,,,,,,,63,10.1016/j.jallcom.2013.11.084,,,159,FCC,ANNEAL,FCC,2018
J4,10.1016/j.matchar.2018.06.036,Al0.304 Co1 Cr1 Fe1 Ni1,FCC + B2,M,Aged,,,,,,,,,,,,,,,64,10.1016/j.matdes.2016.05.079,,,159,other,ANNEAL,,2018
J4,10.1016/j.matchar.2018.06.036,Al1 Co1 Cr1 Fe1 Ni1,BCC + B2,M,AC,,,,T,25.0,395.0,400.0,1.0,,,,,,I don't like this reference...,71,10.1016/j.jallcom.2017.03.307,,,159,other,CAST,,2018
J4,10.1016/j.matchar.2018.06.036,Al1 Co1 Cr1 Fe1 Ni1,BCC + B2,M,AC,,,,C,25.0,1380.0,,10.0,,,,,,,70,10.1016/j.jallcom.2016.05.034,,,159,other,CAST,,2018
J4,10.1016/j.matchar.2018.06.036,Al1 Co1 Cr1 Fe1 Ni1,BCC + $\sigma$ + B2 + FCC,M,A,,,,C,25.0,1430.0,,1.6,,,,,,,70,10.1016/j.jallcom.2016.05.034,,,159,other,ANNEAL,,2018
J4,10.1016/j.matchar.2018.06.036,Al1 Co1 Cr1 Fe1 Ni1,BCC + B2 + FCC,M,A,,,,C,25.0,1690.0,,2.7,,,,,,,70,10.1016/j.jallcom.2016.05.034,,,159,other,ANNEAL,,2018
J4,10.1016/j.matchar.2018.06.036,Al1 Co1 Cr1 Fe1 Ni1,BCC + B2 + FCC,M,A,,,,C,25.0,1220.0,,13.0,,,,,,,70,10.1016/j.jallcom.2016.05.034,,,159,other,ANNEAL,,2018
J4,10.1016/j.matchar.2018.06.036,Al1 Co1 Cr1 Fe1 Ni1,BCC + B2 + FCC,M,A,,,,C,25.0,1450.0,,20.0,,,,,,,70,10.1016/j.jallcom.2016.05.034,,,159,other,ANNEAL,,2018
J4,10.1016/j.matchar.2018.06.036,Al1 Co1 Cr1 Fe1 Ni1,FCC + BCC,M,A,,,,T,25.0,900.0,935.0,0.8,,,,,,I don't like this reference...,71,10.1016/j.jallcom.2017.03.307,,,159,other,ANNEAL,,2018
J4,10.1016/j.matchar.2018.06.036,Al0.515 Cr0.515 Fe1 Ni1,FCC + BCC + B2,M,AC,,,,T,25.0,796.0,1437.0,15.7,,,,,,,73,10.1016/j.matlet.2016.01.096,,,159,other,CAST,,2018
J4,10.1016/j.matchar.2018.06.036,Al0.511 Co0.511 Cr0.511 Fe0.511 Ni1,L12 + B2,M,,,,,T,25.0,545.0,1030.0,16.5,,,,,,the reference has more accurate numbers: https://sci-hub.tw/https://doi.org/10.1016/j.actamat.2016.11.016,74,10.1016/j.actamat.2016.11.016,,,159,other,,,2018
J4,10.1016/j.matchar.2018.06.036,Al0.465 Co0.465 Cr0.465 Fe0.465 Ni1,L12 + B2,M,,,,,T,25.0,545.0,1050.0,16.5,,,,,,the reference has more accurate numbers: https://sci-hub.tw/https://doi.org/10.1016/j.actamat.2016.11.017,74,10.1016/j.actamat.2016.11.016,,,159,other,,,2018
J4,10.1016/j.matchar.2018.06.036,Al0.451 Co0.451 Cr0.451 Fe0.451 Ni1,L12 + B2,M,,,,,T,25.0,545.0,1110.0,20.0,,,,,,the reference has more accurate numbers: https://sci-hub.tw/https://doi.org/10.1016/j.actamat.2016.11.018,74,10.1016/j.actamat.2016.11.016,,,159,other,,,2018
J4,10.1016/j.matchar.2018.06.036,Al0.511 Co0.511 Cr0.511 Fe0.511 Ni1,,,,,,,T,-70.0,580.0,1034.0,10.5,,,,,,the reference has more accurate numbers: https://sci-hub.tw/https://doi.org/10.1016/j.actamat.2016.11.019,74,10.1016/j.actamat.2016.11.016,,,159,other,,,2018
J4,10.1016/j.matchar.2018.06.036,Al0.465 Co0.465 Cr0.465 Fe0.465 Ni1,,,,,,,T,-70.0,595.0,1168.0,15.8,,,,,,the reference has more accurate numbers: https://sci-hub.tw/https://doi.org/10.1016/j.actamat.2016.11.020,74,10.1016/j.actamat.2016.11.016,,,159,other,,,2018
J4,10.1016/j.matchar.2018.06.036,Al0.451 Co0.451 Cr0.451 Fe0.451 Ni1,,,,,,,T,-70.0,570.0,1143.0,18.0,,,,,,the reference has more accurate numbers: https://sci-hub.tw/https://doi.org/10.1016/j.actamat.2016.11.021,74,10.1016/j.actamat.2016.11.016,,,159,other,,,2018
J4,10.1016/j.matchar.2018.06.036,Al0.511 Co0.511 Cr0.511 Fe0.511 Ni1,,,,,,,T,-192.0,700.0,1000.0,4.0,,,,,,UTS range (low value recorded),74,10.1016/j.actamat.2016.11.016,,,159,other,,,2018
J4,10.1016/j.matchar.2018.06.036,Al0.465 Co0.465 Cr0.465 Fe0.465 Ni1,,,,,,,T,-192.0,700.0,1000.0,7.0,,,,,,UTS range (low value recorded),74,10.1016/j.actamat.2016.11.016,,,159,other,,,2018
J4,10.1016/j.matchar.2018.06.036,Al0.451 Co0.451 Cr0.451 Fe0.451 Ni1,,,,,,,T,-192.0,700.0,1000.0,9.0,,,,,,UTS range (low value recorded),74,10.1016/j.actamat.2016.11.016,,,159,other,,,2018
J4,10.1016/j.matchar.2018.06.036,Al0.343 Co0.514 Cr0.514 Fe1 Ni0.514,BCC + B2,M,AC,,,,T,25.0,866.0,1223.0,7.9,,,,,,,77,10.1016/j.scriptamat.2016.04.014,,,159,other,CAST,,2018
J4,10.1016/j.matchar.2018.06.036,Al0.343 Co0.514 Cr0.514 Fe1 Ni0.514,,,AC,,,,T,650.0,400.0,468.0,6.3,,,,,,,77,10.1016/j.scriptamat.2016.04.014,,,159,other,CAST,,2018
J4,10.1016/j.matchar.2018.06.036,Al0.343 Co0.514 Cr0.514 Fe1 Ni0.514,,,AC,,,,T,700.0,220.0,340.0,5.4,,,,,,,77,10.1016/j.scriptamat.2016.04.014,,,159,other,CAST,,2018
J4,10.1016/j.matchar.2018.06.036,Al0.343 Co0.514 Cr0.514 Fe1 Ni0.514,,,AC,,,,C,25.0,1166.0,,30.2,,,,,,,77,10.1016/j.scriptamat.2016.04.014,,,159,other,CAST,,2018
J4,10.1016/j.matchar.2018.06.036,Co1 Cr0.429 Fe0.571 Mo0.286 Ni0.571,FCC,S,AC,,,,T,25.0,350.0,720.0,21.9,,,,,,wrong processing ,85,10.1016/j.scriptamat.2017.05.019,,,159,FCC,CAST,FCC,2018
J4,10.1016/j.matchar.2018.06.036,Co1 Cr0.429 Fe0.571 Mo0.286 Ni0.571,FCC + $\mu$,M,CR + A,,,,T,25.0,1311.0,1410.0,12.1,,,,,,wrong processing ,85,10.1016/j.scriptamat.2017.05.019,,,159,other,WROUGHT,,2018
J4,10.1016/j.matchar.2018.06.036,Co1 Cr0.429 Fe0.571 Mo0.286 Ni0.571,FCC + $\mu$,M,CR + A,,,,T,25.0,1212.0,1360.0,14.9,,,,,,wrong processing ,85,10.1016/j.scriptamat.2017.05.019,,,159,other,WROUGHT,,2018
J4,10.1016/j.matchar.2018.06.036,Co1 Cr0.429 Fe0.571 Mo0.286 Ni0.571,FCC + $\mu$,M,CR + A,,,,T,25.0,1028.0,1249.0,18.3,,,,,,wrong processing ,85,10.1016/j.scriptamat.2017.05.019,,,159,other,WROUGHT,,2018
J4,10.1016/j.matchar.2018.06.036,Co1 Cr0.429 Fe0.571 Mo0.286 Ni0.571,FCC + $\mu$,M,CR + A,,,,T,25.0,879.0,1194.0,25.4,,,,,,wrong processing ,85,10.1016/j.scriptamat.2017.05.019,,,159,other,WROUGHT,,2018
J4,10.1016/j.matchar.2018.06.036,Co1 Cr0.429 Fe0.571 Mo0.286 Ni0.571,FCC + $\mu$,M,CR + A,,,,T,25.0,799.0,1127.0,28.2,,,,,,wrong processing ,85,10.1016/j.scriptamat.2017.05.019,,,159,other,WROUGHT,,2018
J4,10.1016/j.matchar.2018.06.036,Co1 Cr0.429 Fe0.571 Mo0.286 Ni0.571,FCC,S,CR + A,,,,T,25.0,350.0,918.0,62.4,,,,,,wrong processing ,85,10.1016/j.scriptamat.2017.05.019,,,159,FCC,WROUGHT,FCC,2018
J4,10.1016/j.matchar.2018.06.036,Co1 Cr1 Fe1 Ni1,FCC,S,AC,,,,T,25.0,155.0,472.4,58.9,,,,,,,79,10.1016/j.actamat.2016.06.063,,,159,FCC,CAST,FCC,2018
J4,10.1016/j.matchar.2018.06.036,Co1 Cr1 Fe1 Mo0.083 Ni1,,,AC,,,,T,25.0,198.8,479.0,51.1,,,,,,,79,10.1016/j.actamat.2016.06.063,,,159,other,CAST,,2018
J4,10.1016/j.matchar.2018.06.036,Co1 Cr1 Fe1 Mo0.208 Ni1,,,AC,,,,T,25.0,254.7,589.6,55.1,,,,,,,79,10.1016/j.actamat.2016.06.063,,,159,other,CAST,,2018
J4,10.1016/j.matchar.2018.06.036,Co1 Cr1 Fe1 Mo0.304 Ni1,FCC + $\sigma$,M,AC,,,,T,25.0,305.3,709.7,49.3,,,,,,,79,10.1016/j.actamat.2016.06.063,,,159,other,CAST,,2018
J4,10.1016/j.matchar.2018.06.036,Co1 Cr1 Fe1 Mo0.304 Ni1,FCC + $\mu$ + $\sigma$,M,CR + A,3.0,,,T,25.0,815.5,1186.5,18.9,,,,,,not the actual grain size. precipitate sizes currently recorded,79,10.1016/j.actamat.2016.06.063,,,159,other,WROUGHT,,2018
J4,10.1016/j.matchar.2018.06.036,Co1 Cr1 Fe1 Mo0.304 Ni1,FCC + $\mu$ + $\sigma$,M,CR + A,3.1,,,T,25.0,646.7,1042.0,32.5,,,,,,,79,10.1016/j.actamat.2016.06.063,,,159,other,WROUGHT,,2018
J4,10.1016/j.matchar.2018.06.036,Co1 Cr1 Fe1 Mo0.304 Ni1,FCC + $\mu$ + $\sigma$,M,CR + A,1.6,,,T,25.0,683.7,1066.6,30.4,,,,,,,79,10.1016/j.actamat.2016.06.063,,,159,other,WROUGHT,,2018
J4,10.1016/j.matchar.2018.06.036,Co1 Cr1 Fe1 Mn1 Ni1,FCC,,HF+A,13.0,,,T,25.0,243.0,558.0,50.0,,,,,,processing isn't technically as cast because it's forged. so hr ,38,10.1117/1.JEI.26.4.043022,,"Further going back to the original paper, i disagree with their noted elongation. Plus the paper switched two of these (https://www.tandfonline.com/doi/full/10.1080/02670836.2017.1342367?scroll=top&needAccess=true) (ef = 58)",159,FCC,WROUGHT,FCC,2018
J4,10.1016/j.matchar.2018.06.036,C0.02 Co1 Cr1 Fe1 Mn1 Ni1,FCC + Carbide,,HF+A,8.0,,,T,25.0,446.0,723.0,15.0,,,,,,processing isn't technically as cast because it's forged. so hr ,38,10.1117/1.JEI.26.4.043022,,"Further going back to the original paper, i disagree with their noted elongation Plus the paper switched two of these (https://www.tandfonline.com/doi/full/10.1080/02670836.2017.1342367?scroll=top&needAccess=true) (ef = 15.5)",159,other,WROUGHT,,2018
J4,10.1016/j.matchar.2018.06.036,Co1 Cr1 Fe1 Mn1 Ni1,FCC,,HF+CR+A,7.0,,,T,25.0,249.0,621.0,41.0,,,,,,,38,10.1117/1.JEI.26.4.043022,,ef = 47,159,FCC,WROUGHT,FCC,2018
J4,10.1016/j.matchar.2018.06.036,C0.02 Co1 Cr1 Fe1 Mn1 Ni1,FCC + Carbide,,HF+CR+A,4.0,,,T,25.0,581.0,857.0,28.0,,,,,,fixed grain size ,38,10.1117/1.JEI.26.4.043022,,ef = 35,159,other,WROUGHT,,2018
J4,10.1016/j.matchar.2018.06.036,Co1 Cr1 Fe1 Ni1,FCC,S,A,,,,T,25.0,190.0,453.0,70.0,,,,,,,78,10.1016/j.actamat.2015.08.076,,,159,FCC,ANNEAL,FCC,2018
J4,10.1016/j.matchar.2018.06.036,Al0.167 Co1 Cr1 Fe1 Ni1 Ti0.083,FCC,S,A,289.7,,,T,25.0,210.0,503.0,70.0,,,,,,added grain size ,78,10.1016/j.actamat.2015.08.076,,,159,FCC,ANNEAL,FCC,2018
J4,10.1016/j.matchar.2018.06.036,Al0.167 Co1 Cr1 Fe1 Ni1 Ti0.083,FCC + L12 + L21,M,CR + A,15.7,,,T,25.0,645.0,1094.0,39.0,,,,,,added grain size ,78,10.1016/j.actamat.2015.08.076,,,159,other,WROUGHT,,2018
J4,10.1016/j.matchar.2018.06.036,Al0.167 Co1 Cr1 Fe1 Ni1 Ti0.083,FCC + L12 + L21,M,CR + A,2.8,,,T,25.0,1005.0,1273.0,17.0,,,,,,added grain size ,78,10.1016/j.actamat.2015.08.076,,,159,other,WROUGHT,,2018
J4,10.1016/j.matchar.2018.06.036,Al0.108 Co0.514 Cr0.514 Cu0.108 Fe0.514 Ni1,FCC + L12,S,CR + A,,,,T,25.0,719.0,1048.0,30.0,,,,,,jasper got this right but the review paper got it wrong. They switched which one was two phase,76,10.1016/j.msea.2017.04.111,,,159,other,WROUGHT,,2018
J4,10.1016/j.matchar.2018.06.036,Al0.108 Co0.514 Cr0.514 Cu0.108 Fe0.514 Ni1,FCC,M,CR + A,,,,T,25.0,460.0,732.0,32.0,,,,,,jasper got this right but the review paper got it wrong. They switched which one was two phase,76,10.1016/j.msea.2017.04.111,,,159,FCC,WROUGHT,FCC,2018
J4,10.1016/j.matchar.2018.06.036,Al0.242 Co0.515 Cr0.515 Cu0.242 Fe0.515 Ni1,FCC + L12,M,AC,,,280.0,T,25.0,357.0,459.0,9.0,,,,,,,88,10.1016/j.ultramic.2015.06.009,,,159,other,CAST,,2018
J4,10.1016/j.matchar.2018.06.036,Al0.242 Co0.515 Cr0.515 Cu0.242 Fe0.515 Ni1,,,A,,,168.0,,,,,,,,,,,,88,10.1016/j.ultramic.2015.06.009,,,159,other,ANNEAL,,2018
J4,10.1016/j.matchar.2018.06.036,Al0.242 Co0.515 Cr0.515 Cu0.242 Fe0.515 Ni1,,,A,,,328.0,,,,,,,,,,,,88,10.1016/j.ultramic.2015.06.009,,,159,other,ANNEAL,,2018
J4,10.1016/j.matchar.2018.06.036,Al0.242 Co0.515 Cr0.515 Cu0.242 Fe0.515 Ni1,,,A,,,206.0,,,,,,,,,,,,,This Article,,,159,other,ANNEAL,,2018
J4,10.1016/j.matchar.2018.06.036,Al0.229 Co0.486 Cr0.4 Cu0.229 Fe0.486 Mo0.003 Ni1 Ti0.029 W0.003,,,AC,,,231.0,,,,,,,,,,,,88,10.1016/j.ultramic.2015.06.009,,,159,other,CAST,,2018
J4,10.1016/j.matchar.2018.06.036,Al0.229 Co0.486 Cr0.4 Cu0.229 Fe0.486 Mo0.003 Ni1 Ti0.029 W0.003,,,A,,,178.0,,,,,,,,,,,,88,10.1016/j.ultramic.2015.06.009,,,159,other,ANNEAL,,2018
J4,10.1016/j.matchar.2018.06.036,Al0.229 Co0.486 Cr0.4 Cu0.229 Fe0.486 Mo0.003 Ni1 Ti0.029 W0.003,,,A,,,343.0,,,,,,,,,,,,88,10.1016/j.ultramic.2015.06.009,,,159,other,ANNEAL,,2018
J4,10.1016/j.matchar.2018.06.036,Al0.229 Co0.486 Cr0.4 Cu0.229 Fe0.486 Mo0.003 Ni1 Ti0.029 W0.003,,,A,,,171.0,,,,,,,,,,,,,This Article,,,159,other,ANNEAL,,2018
J4,10.1016/j.matchar.2018.06.036,Al0.278 Co0.694 Cr0.222 Fe0.417 Ni1 Ti0.167,,,AC,,,343.0,,,,,,,,,,,,30,10.1007/s11837-015-1484-7,,,159,other,CAST,,2018
J4,10.1016/j.matchar.2018.06.036,Al0.278 Co0.694 Cr0.222 Fe0.417 Ni1 Ti0.167,,,A,,,341.0,,,,,,,,,,,,30,10.1007/s11837-015-1484-7,,,159,other,ANNEAL,,2018
J4,10.1016/j.matchar.2018.06.036,Al0.278 Co0.694 Cr0.222 Fe0.417 Ni1 Ti0.167,FCC + L12 + C1,M,A,,,345.0,T,25.0,568.0,786.0,12.0,,,,,,,30,10.1007/s11837-015-1484-7,,,159,other,ANNEAL,,2018
J4,10.1016/j.matchar.2018.06.036,Al0.278 Co0.694 Cr0.222 Fe0.417 Ni1 Ti0.167,FCC + L12 + C1,M,A,,,345.0,T,25.0,596.0,1039.0,20.0,,,,,,,30,10.1007/s11837-015-1484-7,,,159,other,ANNEAL,,2018
J4,10.1016/j.matchar.2018.06.036,Al0.242 Co0.515 Cr0.515 Cu0.242 Fe0.515 Ni1,FCC + L12,M,A,,,,T,25.0,215.0,489.0,39.0,,,,,,,88,10.1016/j.ultramic.2015.06.009,,,159,other,ANNEAL,,2018
J4,10.1016/j.matchar.2018.06.036,Al0.278 Co0.694 Cr0.222 Fe0.417 Ni1 Ti0.167,FCC + L12 + C1,M,A,0.37,,345.0,T,700.0,487.0,702.0,18.0,,,,,,,30,10.1007/s11837-015-1484-7,,,159,other,ANNEAL,,2018
J4,10.1016/j.matchar.2018.06.036,Al0.278 Co0.694 Cr0.222 Fe0.417 Ni1 Ti0.167,FCC + L12 + C1,M,A,0.32,,345.0,T,700.0,486.0,624.0,11.0,,,,,,,30,10.1007/s11837-015-1484-7,,,159,other,ANNEAL,,2018
J4,10.1016/j.matchar.2018.06.036,Al0.885 Cr1 Fe1 Ni1,BCC + B2,M,AC,,,,C,25.0,770.0,,37.1,,,,,,,75,10.1016/j.msea.2016.11.019,,,159,other,CAST,,2018
J4,10.1016/j.matchar.2018.06.036,Al1 Cr1 Fe1 Ni1,BCC + B2,M,AC,,,,C,25.0,843.2,,34.6,,,,,,,75,10.1016/j.msea.2016.11.019,,,159,other,CAST,,2018
J4,10.1016/j.matchar.2018.06.036,Al1 Cr0.889 Fe0.889 Ni0.889,BCC + B2,M,AC,,,,C,25.0,1044.0,,27.1,,,,,,,75,10.1016/j.msea.2016.11.019,,,159,other,CAST,,2018
J4,10.1016/j.matchar.2018.06.036,Al1 Cr0.828 Fe0.828 Ni0.828,BCC + B2,M,AC,,,,C,25.0,906.8,,31.4,,,,,,,75,10.1016/j.msea.2016.11.019,,,159,other,CAST,,2018
J4,10.1016/j.matchar.2018.06.036,Al1 Cr0.767 Fe0.767 Ni0.767,BCC + B2,M,AC,,,,C,25.0,1122.8,,24.7,,,,,,,75,10.1016/j.msea.2016.11.019,,,159,other,CAST,,2018
J4,10.1016/j.matchar.2018.06.036,Al0.5 Cr0.5 Fe1 Ni1,BCC + B2,M,AC,,,,C,25.0,,,17.0,,,,,,,73,10.1016/j.matlet.2016.01.096,,,159,other,CAST,,2018
J4,10.1016/j.matchar.2018.06.036,Al1 Co1 Cr1 Fe1 Ni1,BCC + B2,M,AC,,,,C,25.0,,,22.7,,,,,,,109,10.1016/j.matdes.2013.12.048,,,159,other,CAST,,2018
J4,10.1016/j.matchar.2018.06.036,Al0.545 Cr0.545 Fe0.515 Ni1 Ti0.273,BCC + B2 + L12,M,AC,,,,C,25.0,,,16.3,,,,,,,53,10.1016/j.jmst.2014.09.011,,,159,other,CAST,,2018
J4,10.1016/j.matchar.2018.06.036,Al0.545 Cr0.545 Fe0.515 Ni1 Ti0.273,BCC + B2 + L12,M,A,,,,C,25.0,,,19.8,,,,,,,53,10.1016/j.jmst.2014.09.011,,,159,other,ANNEAL,,2018
J4,10.1016/j.matchar.2018.06.036,Al1 Cr1 Fe1 Mo0.208 Ni1,BCC + B2,M,AC,,,,C,25.0,,,28.7,,,,,,,49,10.1016/j.jallcom.2013.03.253,,,159,other,CAST,,2018
J4,10.1016/j.matchar.2018.06.036,Cr1 Fe1 Ni1 V0.5 W1,FCC + BCC + $\sigma$,M,AC,,,,C,25.0,,,7.3,,,,,,,50,10.1007/s11665-015-1767-8,,,159,other,CAST,,2018
J4,10.1016/j.matchar.2018.06.036,Co1 Cr1 Cu1 Fe1 Ni1,FCC + FCC,M,AC,,,,C,25.0,,,50.2,,,,,,,48,10.1016/j.intermet.2006.08.005,,,159,other,CAST,,2018
J4,10.1016/j.matchar.2018.06.036,Al0.515 Cr0.515 Cu0.515 Fe0.515 Ni1,FCC + BCC + B2,M,AC,,,,C,25.0,,,30.0,,,,,,,110,10.1016/j.msea.2015.09.089,,,159,other,CAST,,2018
J4,10.1016/j.matchar.2018.06.036,Co1 Cr1 Fe1 Mn1 Ni1,FCC,S,A,,,,C,25.0,230.0,,75.0,,,,,,,96,10.1134/S0031918X17060084,,,159,FCC,ANNEAL,FCC,2018
J4,10.1016/j.matchar.2018.06.036,Co1 Cr1 Fe1 Mn1 Ni1 V0.263,FCC + $\sigma$,M,A,,,,C,25.0,200.0,,75.0,,,,,,,96,10.1134/S0031918X17060084,,,159,other,ANNEAL,,2018
J4,10.1016/j.matchar.2018.06.036,Co1 Cr1 Fe1 Mn1 Ni1 V0.5,FCC + $\sigma$,M,A,,,,C,25.0,620.0,,75.0,,,,,,,96,10.1134/S0031918X17060084,,,159,other,ANNEAL,,2018
J4,10.1016/j.matchar.2018.06.036,Co1 Cr1 Fe1 Mn1 Ni1 V0.765,FCC + $\sigma$,M,A,,,,C,25.0,780.0,,8.0,,,,,,,96,10.1134/S0031918X17060084,,,159,other,ANNEAL,,2018
J4,10.1016/j.matchar.2018.06.036,Co1 Cr1 Fe1 Mn1 Ni1 V1,FCC + $\sigma$,M,A,,,,C,25.0,1700.0,,1.0,,,,,,,96,10.1134/S0031918X17060084,,,159,other,ANNEAL,,2018
J4,10.1016/j.matchar.2018.06.036,Al0.304 Co1 Cr1 Fe1 Ni1,FCC,S,AC,,,,C,25.0,,,25.0,,,,,,,111,10.1016/j.msea.2015.02.072,,,159,FCC,CAST,FCC,2018
J4,10.1016/j.matchar.2018.06.036,Co1 Cr1 Fe1 Ni1,FCC,S,AC,,,,C,25.0,,,83.0,,,,,,,112,10.1016/j.jallcom.2013.12.210,,,159,FCC,CAST,FCC,2018
J4,10.1016/j.matchar.2018.06.036,Al0.511 Co0.511 Cr0.511 Fe0.511 Ni1,FCC + B2,M,AC,,,,T,25.0,545.0,1030.0,16.5,,,,,,the values given by the review are a little off from the values provided by the reference itself https://sci-hub.tw/https://doi.org/10.1016/j.actamat.2016.11.016,74,10.1016/j.actamat.2016.11.016,,,159,other,CAST,,2018
J4,10.1016/j.matchar.2018.06.036,Al0.465 Co0.465 Cr0.465 Fe0.465 Ni1,FCC + B2,M,AC,,,,T,25.0,545.0,1050.0,16.5,,,,,,the values given by the review are a little off from the values provided by the reference itself https://sci-hub.tw/https://doi.org/10.1016/j.actamat.2016.11.017,74,10.1016/j.actamat.2016.11.016,,,159,other,CAST,,2018
J4,10.1016/j.matchar.2018.06.036,Al0.451 Co0.451 Cr0.451 Fe0.451 Ni1,FCC + B2,M,AC,,,,T,25.0,545.0,1110.0,20.0,,,,,,the values given by the review are a little off from the values provided by the reference itself https://sci-hub.tw/https://doi.org/10.1016/j.actamat.2016.11.018,74,10.1016/j.actamat.2016.11.016,,,159,other,CAST,,2018
J4,10.1016/j.matchar.2018.06.036,Al0.108 Co0.514 Cr0.514 Cu0.108 Fe0.514 Ni1,FCC,S,CR + A,,,,T,25.0,719.0,1048.0,30.0,,,,,,,76,10.1016/j.msea.2017.04.111,,,159,FCC,WROUGHT,FCC,2018
J4,10.1016/j.matchar.2018.06.036,Al0.108 Co0.514 Cr0.514 Cu0.108 Fe0.514 Ni1,FCC + L12,M,CR + A,,,,T,25.0,460.0,732.0,32.0,,,,,,,76,10.1016/j.msea.2017.04.111,,,159,other,WROUGHT,,2018
J4,10.1016/j.matchar.2018.06.036,Al0.242 Co0.515 Cr0.515 Cu0.242 Fe0.515 Ni1,fcc + L12+ Cr23C6,M,AC,,,,T,25.0,357.0,459.0,9.0,,,,,,,86,10.1007/s11837-013-0756-3,,,159,other,CAST,,2018
J4,10.1016/j.matchar.2018.06.036,Al0.242 Co0.515 Cr0.515 Cu0.242 Fe0.515 Ni1,fcc + L12+ Cr23C6,M,A,,,,T,25.0,365.0,365.0,0.1,,,,,,,86,10.1007/s11837-013-0756-3,,,159,other,ANNEAL,,2018
J4,10.1016/j.matchar.2018.06.036,Al0.242 Co0.515 Cr0.515 Cu0.242 Fe0.515 Ni1,FCC + L12,M,A,,,,T,25.0,215.0,489.0,39.0,,,,,,,86,10.1007/s11837-013-0756-3,,,159,other,ANNEAL,,2018
J4,10.1016/j.matchar.2018.06.036,Al0.5 Co1 Cr1 Cu1 Fe1 Ni1,FCC1 + FCC2,M,A + CR,,,,T,25.0,1284.0,1344.0,7.6,,,,,,Inverted order of processing ,113,10.1016/j.actamat.2015.07.004,,,159,other,WROUGHT,,2018
J4,10.1016/j.matchar.2018.06.036,Al0.5 Co1 Cr1 Cu1 Fe1 Ni1,FCC,S,CR,,,,T,25.0,1290.0,1400.0,5.0,,,,,,,114,10.1016/j.jallcom.2009.10.088,,,159,FCC,WROUGHT,FCC,2018
J4,10.1016/j.matchar.2018.06.036,Al0.5 Co1 Cr1 Cu1 Fe1 Ni1,FCC1 + FCC2,M,CR + A,,,,T,25.0,650.0,790.0,27.0,,,,,,,114,10.1016/j.jallcom.2009.10.088,,,159,other,WROUGHT,,2018
J4,10.1016/j.matchar.2018.06.036,Al1 Co1 Cr1 Cu1 Fe1 Ni1,BCC + FCC1 + FCC2,M,AC,,,,T,25.0,790.0,790.0,0.2,,,,,,,42,10.1016/j.msea.2011.11.045,,,159,other,CAST,,2018
J4,10.1016/j.matchar.2018.06.036,Al1 Co1 Cr1 Cu1 Fe1 Ni1,BCC + FCC1 + FCC2 + $\sigma$,M,HF,,,,T,25.0,1040.0,1170.0,1.0,,,,,,forging isn't as cast,42,10.1016/j.msea.2011.11.045,,,159,other,WROUGHT,,2018
J4,10.1016/j.matchar.2018.06.036,Co1 Cr1 Fe1 Mn1 Ni1,FCC,S,AC,,,,T,25.0,209.0,496.0,62.0,,,,,,,115,10.1016/j.actamat.2013.09.037,,,159,FCC,CAST,FCC,2018
J4,10.1016/j.matchar.2018.06.036,Al0.304 Co1 Cr1 Fe1 Ni1,FCC,S,AC,,,,T,25.0,210.0,500.0,58.0,,,,,,,115,10.1016/j.actamat.2013.09.037,,,159,FCC,CAST,FCC,2018
J4,10.1016/j.matchar.2018.06.036,Al0.348 Co1 Cr1 Fe1 Ni1,FCC + BCC,M,AC,,,,T,25.0,242.0,529.0,47.0,,,,,,,115,10.1016/j.actamat.2013.09.037,,,159,other,CAST,,2018
J4,10.1016/j.matchar.2018.06.036,Al0.391 Co1 Cr1 Fe1 Ni1,FCC + BCC,M,AC,,,,T,25.0,275.0,610.0,36.0,,,,,,,115,10.1016/j.actamat.2013.09.037,,,159,other,CAST,,2018
J4,10.1016/j.matchar.2018.06.036,Al0.435 Co1 Cr1 Fe1 Ni1,FCC + BCC,M,AC,,,,T,25.0,320.0,700.0,30.0,,,,,,,115,10.1016/j.actamat.2013.09.037,,,159,other,CAST,,2018
J4,10.1016/j.matchar.2018.06.036,Al0.5 Co1 Cr1 Fe1 Ni1,FCC + BCC,M,AC,,,,T,25.0,500.0,980.0,19.0,,,,,,,115,10.1016/j.actamat.2013.09.037,,,159,other,CAST,,2018
J4,10.1016/j.matchar.2018.06.036,Al0.304 Co1 Cr1 Fe1 Ni1,FCC + BCC + B2,M,AC,,,,T,25.0,832.0,1174.0,7.7,,,,,,,115,10.1016/j.actamat.2013.09.037,,,159,other,CAST,,2018