REFERENCE: tag,REFERENCE: doi,FORMULA,PROPERTY: Type of phases,PROPERTY: Single/Multiphase,PROPERTY: synthesis method,PROPERTY: grain size ($\mu$m),PROPERTY: ROM Density (g/cm$^3$),PROPERTY: HV,PROPERTY: Type of test,PROPERTY: Test temperature ($^\circ$C),PROPERTY: YS (MPa),PROPERTY: UTS (MPa),PROPERTY: Elongation (%),PROPERTY: Elongation plastic (%),PROPERTY: Young modulus (GPa),PROPERTY: O content (wppm),PROPERTY: N content (wppm),PROPERTY: C content (wppm),REFERENCE: comment,"Internal Reference # (J4, J90)","J4, J90 Original DOI",PROPERTY: Exp. Density (g/cm$^3$),Unnamed: 22,IDENTIFIER: Reference ID,PROPERTY: BCC/FCC/other,PROPERTY: Processing method,PROPERTY: Microstructure,REFERENCE: year
J131,10.3390/e21010015,Hf1 Mo1 Nb1 Ta1 Zr1,BCC,S,AC,,,,C,1400.0,278.0,,,,,,,,,,,,,129,BCC,CAST,BCC,
J131,10.3390/e21010015,Hf1 Mo1 Nb1 Ta1 Ti1,BCC,S,AC,,,,C,1400.0,367.0,,,,,,,,,,,,,129,BCC,CAST,BCC,
J132,10.3390/coatings9010016,Co1 Cr1 Fe1 Ni1,FCC,S,VHP,0.0276,,,,,,,,,,,,,,,,,,130,FCC,POWDER,FCC,
J132,10.3390/coatings9010016,C0.111 Co1 Cr1 Fe1 Ni1 W0.111,FCC,S,VHP,0.0189,,475.0,,,,,,,,,,,,,,7.24 ,,130,FCC,POWDER,FCC,
J132,10.3390/coatings9010016,C0.429 Co1 Cr1 Fe1 Ni1 W0.429,FCC,S,VHP,0.0182,,531.0,,,,,,,,,,,,,,8.39 ,,130,FCC,POWDER,FCC,
J133,10.5755/j01.ms.25.3.19452,Al0.267 Co1 Cr0.667 Fe0.667 Ni0.667 Ti0.2,FCC + BCC,M,SPS,,,515.0,C,25.0,2012.0,,,17.52 ,,,,,,,,,,131,other,POWDER,,
J134,10.1007/s11661-018-4646-8,Hf1 Nb1 Ta1 Ti1 Zr1,BCC,S,AC,,,,T,25.0,1438.0,1218.0,5.0,,91.5,,,,Hot Isostatically Pressed,,,,,132,BCC,CAST,BCC,
J134,10.1007/s11661-018-4646-8,Hf1 Nb1 Ta1 Ti1 Zr1,BCC,S,HIP + CR + A,,,,T,25.0,1159.0,1127.0,4.7,,99.2,,,,these are true strains but it's close enough ,,,,,132,BCC,OTHER,BCC,
J134,10.1007/s11661-018-4646-8,Hf1 Nb1 Ta1 Ti1 Zr1,BCC,S,HIP + CR + A,,,,T,25.0,1134.0,1134.0,7.6,,109.1,,,,,,,,,132,BCC,OTHER,BCC,
J134,10.1007/s11661-018-4646-8,Hf1 Nb1 Ta1 Ti1 Zr1,BCC,S,HIP + CR + A,,,,T,25.0,1094.0,1066.0,6.0,,105.3,,,,,,,,,132,BCC,OTHER,BCC,
J134,10.1007/s11661-018-4646-8,Hf1 Nb1 Ta1 Ti1 Zr1,BCC,S,HIP + CR + A,,,,T,25.0,1071.0,964.0,4.6,,91.6,,,,,,,,,132,BCC,OTHER,BCC,
J134,10.1007/s11661-018-4646-8,Hf1 Nb1 Ta1 Ti1 Zr1,BCC,S,HIP + CR + A,24.4,,,T,25.0,1107.0,977.0,13.9,,92.6,,,,,,,,,132,BCC,OTHER,BCC,
J134,10.1007/s11661-018-4646-8,Hf1 Nb1 Ta1 Ti1 Zr1,BCC,S,HIP + CR + A,31.3,,,T,25.0,1115.0,830.0,18.5,,92.6,,,,,,,,,132,BCC,OTHER,BCC,
J134,10.1007/s11661-018-4646-8,Hf1 Nb1 Ta1 Ti1 Zr1,BCC,S,HIP + CR + A,38.4,,,T,25.0,1114.0,935.0,12.2,,101.3,,,,,,,,,132,BCC,OTHER,BCC,
J134,10.1007/s11661-018-4646-8,Hf1 Nb1 Ta1 Ti1 Zr1,BCC,S,HIP + CR + A,50.1,,,,,,,,,,,,,,,,,,132,BCC,OTHER,BCC,
J134,10.1007/s11661-018-4646-8,Hf1 Nb1 Ta1 Ti1 Zr1,BCC,S,HIP + CR + A,21.9,,,,,,,,,,,,,,,,,,132,BCC,OTHER,BCC,
J134,10.1007/s11661-018-4646-8,Hf1 Nb1 Ta1 Ti1 Zr1,BCC,S,HIP + CR + A,75.5,,,,,,,,,,,,,,,,,,132,BCC,OTHER,BCC,
J135,10.1080/02670836.2018.1446267,Al1 Nb1 Ti1 Zr1,B2,S,AC,250.0,,422.0,C,25.0,1509.0,,8.6,,,,,,,,,5.85,,133,other,CAST,B2,2018
J135,10.1080/02670836.2018.1446267,Al1 Nb1 Ti1 Zr1,B2 + Zr5Al3,M,A,,,418.0,C,25.0,1579.0,,17.8,,,,,,,,,,,133,other,ANNEAL,,2018
J135,10.1080/02670836.2018.1446267,Hf1 Mo1 Ta1 Ti1 Zr1,,,,,,541.6,C,25.0,1600.0,,4.0,,,,,,,14,,10.24,,133,other,,,2018
J135,10.1080/02670836.2018.1446267,Hf1 Nb1 Ta1 Ti1 Zr1,,,,,,390.1,C,25.0,929.0,,50.0,,,,,,,15,,9.94,,133,other,,,2018
J135,10.1080/02670836.2018.1446267,Al1 Nb1 Ti1 V1,,,,,,440.0,C,25.0,1020.0,,8.5,,,,,,,17,,5.59,,133,other,,,2018
J135,10.1080/02670836.2018.1446267,Al1 Nb1 Ti1 V1 Zr0.5,,,,,,,C,25.0,1480.0,,50.0,,,,,,,18,,5.64,,133,other,,,2018
J135,10.1080/02670836.2018.1446267,Al1 Nb1 Ti1 Zr1,,,,,,539.6,C,25.0,1080.0,,5.9,,,,,,,19,,5.79,,133,other,,,2018
J135,10.1080/02670836.2018.1446267,Hf1 Nb1 Ti1 Zr1,,,,,,,C,25.0,879.0,,16.5,,,,,,,20,,,,133,other,,,2018
J135,10.1080/02670836.2018.1446267,Al0.667 Nb1 Ta0.333 Ti1 Zr0.333,,,,,,407.9,C,25.0,1280.0,,4.8,,,,,,,26,,6.8,,133,other,,,2018
J135,10.1080/02670836.2018.1446267,Nb1 Ti1 V1 Zr1,,,,,,335.0,C,25.0,1105.0,,50.0,,,,,,,24-25,,6.52,,133,other,,,2018
J135,10.1080/02670836.2018.1446267,Cr1 Nb1 Ti1 Zr1,,,,,,418.0,C,25.0,1260.0,,6.0,,,,,,,24-25,,6.67,,133,other,,,2018