REFERENCE: tag,REFERENCE: doi,FORMULA,PROPERTY: Type of phases,PROPERTY: Single/Multiphase,PROPERTY: synthesis method,PROPERTY: grain size ($\mu$m),PROPERTY: ROM Density (g/cm$^3$),PROPERTY: HV,PROPERTY: Type of test,PROPERTY: Test temperature ($^\circ$C),PROPERTY: YS (MPa),PROPERTY: UTS (MPa),PROPERTY: Elongation (%),PROPERTY: Elongation plastic (%),PROPERTY: Young modulus (GPa),PROPERTY: O content (wppm),PROPERTY: N content (wppm),PROPERTY: C content (wppm),REFERENCE: comment,"Internal Reference # (J4, J90)","J4, J90 Original DOI",PROPERTY: Exp. Density (g/cm$^3$),Unnamed: 22,IDENTIFIER: Reference ID,PROPERTY: BCC/FCC/other,PROPERTY: Processing method,PROPERTY: Microstructure,REFERENCE: year
J90,10.1016/j.msea.2019.05.056,Al0.286 Cr0.343 Fe1 Mn0.657 Ni0.571,FCC,S,CR,,,,T,25.0,320.0,625.0,42.2,42.45,,,,,,,This Paper,,,208,FCC,WROUGHT,FCC,2019
J90,10.1016/j.msea.2019.05.056,Al0.143 Cr0.343 Fe1 Mn0.8 Ni0.571,FCC,S,AC,,,,T,25.0,1253.0,1392.0,6.78,8.2,,,,,,,This Paper,,,208,FCC,CAST,FCC,2019
J90,10.1016/j.msea.2019.05.056,Al0.286 Cr0.343 Fe1 Mn0.657 Ni0.571,FCC,S,CR,,,,T,25.0,1400.0,1500.0,5.83,7.85,,,,,,,This Paper,,,208,FCC,WROUGHT,FCC,2019
J91,10.1016/j.msea.2019.04.096,Co1 Cu1 Fe1 Mn1 Ni1,FCC,S,AC,,,,,800.0,,,,,,,,,,,,,,209,FCC,CAST,FCC,2019
J91,10.1016/j.msea.2019.04.096,Co1 Cu1 Fe1 Mn1 Ni1,FCC,S,AC,,,,,900.0,,,,,,,,,,,,,,209,FCC,CAST,FCC,2019
J91,10.1016/j.msea.2019.04.096,Co1 Cu1 Fe1 Mn1 Ni1,FCC,S,AC,,,,,100.0,,,,,,,,,,,,,,209,FCC,CAST,FCC,2019
J92,10.1016/j.msea.2019.05.078,Co1 Cr1 Fe1 Mo0.15 Ni1,FCC,S,AC,,,,T,25.0,489.0,895.0,,53.6 ,,,,,,,,,,210,FCC,CAST,FCC,2019
J92,10.1016/j.msea.2019.05.078,Co1 Cr1 Fe1 Mo0.15 Ni1,,,CR+A,,,,T,25.0,873.0,,,23.4 ,,,,,CR,,,,,210,other,WROUGHT,,2019
J92,10.1016/j.msea.2019.05.078,Co1 Cr1 Fe1 Mo0.15 Ni1,,,CR+A,,,,T,25.0,952.0,1122.0,,14.2 ,,,,,,,,,,210,other,WROUGHT,,2019
J92,10.1016/j.msea.2019.05.078,Co1 Cr1 Fe1 Mo0.15 Ni1,FCC,S,CR+A,,,,T,25.0,1136.0,1245.0,,8.7 ,,,,,,,,,,210,FCC,WROUGHT,FCC,2019
J92,10.1016/j.msea.2019.05.078,Co1 Cr1 Fe1 Mo0.15 Ni1,FCC,S,CR+A,,,,T,25.0,1301.0,1493.0,,7.2 ,,,,,,,,,,210,FCC,WROUGHT,FCC,2019
J92,10.1016/j.msea.2019.05.078,Co1 Cr1 Fe1 Mo0.15 Ni1,,,CR+A,,,,T,25.0,1311.0,1421.0,,5.9 ,,,,,,,,,,210,other,WROUGHT,,2019
J92,10.1016/j.msea.2019.05.078,Co1 Cr1 Fe1 Mo0.15 Ni1,,,CR+A,,,,T,25.0,1273.0,1458.0,,5.5 ,,,,,,,,,,210,other,WROUGHT,,2019
J93,10.1016/j.msea.2019.05.003,Co0.139 Cr0.446 Cu0.99 Ni1 Si0.277,,M,CR+A,,,142.5,T,25.0,777.0,810.0,3.4,,,,,,added multiphase,,,,,211,other,WROUGHT,,2019
J93,10.1016/j.msea.2019.05.003,Co0.139 Cr0.446 Cu0.99 Ni1 Si0.277,,M,CR+A,,,147.4,,,,,,,,,,,added multiphase,,,,,211,other,WROUGHT,,2019
J93,10.1016/j.msea.2019.05.003,Co0.139 Cr0.446 Cu0.99 Ni1 Si0.277,,M,CR+A,,,155.2,,,,,,,,,,,added multiphase,,,,,211,other,WROUGHT,,2019
J95,10.1038/s41467-019-10533-1,Al1 Co1 Cr0.091 Nb0.727 W0.212,,,AC,,,1084.0,,25.0,,,,,,,,,,,,,,212,other,CAST,,
J95,10.1038/s41467-019-10533-1,Co1 Cr0.917 Ni1 Ta0.5 Ti0.75,,,AC,,,1011.0,,25.0,,,,,,,,,,,,,,212,other,CAST,,
J95,10.1038/s41467-019-10533-1,Al0.947 Co0.158 Mo1 Ni0.289 W0.237,,,AC,,,725.0,,25.0,,,,,,,,,,,,,,212,other,CAST,,
J95,10.1038/s41467-019-10533-1,Co0.043 Nb0.638 Ni1 Ta0.255 Ti0.191,,,AC,,,815.0,,25.0,,,,,,,,,,,,,,212,other,CAST,,
J95,10.1038/s41467-019-10533-1,Co0.273 Cr0.477 Nb0.477 Ni0.045 Ti1,,,AC,,,422.0,,25.0,,,,,,,,,,,,,,212,other,CAST,,
J95,10.1038/s41467-019-10533-1,Co1 Cr0.487 Nb0.231 Ta0.026 Ti0.821,,,AC,,,856.0,,25.0,,,,,,,,,,,,,,212,other,CAST,,
J95,10.1038/s41467-019-10533-1,Co0.564 Nb0.795 Ta0.103 Ti1 W0.103,,,AC,,,277.0,,25.0,,,,,,,,,,,,,,212,other,CAST,,
J98,10.1016/j.jmst.2018.12.014,Al1 Co1 Cu1 Fe1 Ni0.5,FCC + BCC + B2,M,AC,,,430.9,C,25.0,929.0,,13.7,,,,,,,,,,,213,other,CAST,,2018
J98,10.1016/j.jmst.2018.12.014,Al1 Co1 Cu1 Fe1 Ni0.8,FCC + BCC + B2,M,AC,,,420.0,C,25.0,1021.0,,12.3,,,,,,,,,,,213,other,CAST,,2018
J98,10.1016/j.jmst.2018.12.014,Al1 Co1 Cu1 Fe1 Ni1,FCC + BCC + B2,M,AC,,,391.4,C,25.0,994.0,,24.5,,,,,,,,,,,213,other,CAST,,2018
J98,10.1016/j.jmst.2018.12.014,Al0.667 Co0.667 Cu0.667 Fe0.667 Ni1,FCC + BCC + B2,M,AC,,,323.8,C,25.0,680.0,,35.9,,,,,,,,,,,213,other,CAST,,2018
J98,10.1016/j.jmst.2018.12.014,Al0.5 Co0.5 Cu0.5 Fe0.5 Ni1,FCC + BCC + B2,M,AC,,,299.2,C,25.0,544.0,,,,,,,,,,,,,213,other,CAST,,2018
J98,10.1016/j.jmst.2018.12.014,Al0.333 Co0.333 Cu0.333 Fe0.333 Ni1,FCC,S,AC,,,279.6,C,25.0,268.0,,,,,,,,,,,,,213,FCC,CAST,FCC,2018
J100,10.1016/j.msea.2019.04.104,Al0.5 Cr1 Fe1 Mn1 Ni1,BCC + B2,M,AC,,,353.0,C,25.0,1091.0,,50.0,,,,,,,,,,,101,other,CAST,,2019
J100,10.1016/j.msea.2019.04.104,Al0.6 Cr1 Fe1 Mn1 Ni1,BCC + B2,M,AC,,,361.0,C,25.0,1130.0,,53.0,,,,,,,,,,,101,other,CAST,,2019
J100,10.1016/j.msea.2019.04.104,Al0.7 Cr1 Fe1 Mn1 Ni1,BCC + B2,M,AC,,,375.0,C,25.0,1170.0,,55.0,,,,,,,,,,,101,other,CAST,,2019
J100,10.1016/j.msea.2019.04.104,Al0.8 Cr1 Fe1 Mn1 Ni1,BCC + B2,M,AC,,,386.0,C,25.0,1200.0,,55.0,,,,,,,,,,,101,other,CAST,,2019
J102,10.1016/j.jmmm.2019.01.096,Co1 Cr0.2 Fe1 Ni1 Si0.2,FCC,S,AC,,,130.1,T,25.0,225.0,732.0,61.0,,,,,,,,,,,102,FCC,CAST,FCC,2019
J102,10.1016/j.jmmm.2019.01.096,Co1 Cr0.2 Fe1 Ni1 Si0.2,FCC,S,HR,,,318.2,T,25.0,705.0,1070.0,10.0,,,,,,changed processing to hot rolling,,,,,102,FCC,WROUGHT,FCC,2019
J102,10.1016/j.jmmm.2019.01.096,Co1 Cr0.2 Fe1 Ni1 Si0.2,FCC,S,HR + A,,,153.8,T,25.0,320.0,920.0,60.0,,,,,,changed processing to hot rolling,,,,,102,FCC,WROUGHT,FCC,2019
J105,10.1038/s41598-019-43329-w,Al1 Cu0.077 Fe0.077 Mg0.077 Si0.231 Zn0.077,FCC,S,AC,,,,C,25.0,422.0,,1.0,,88.7,,,,,,,3.08,,103,FCC,CAST,FCC,
J105,10.1038/s41598-019-43329-w,Al1 Cu0.077 Mg0.077 Ni0.077 Si0.231 Zn0.077,FCC,S,AC,,,,C,25.0,534.0,,1.0,,107.8,,,,,,,3.15,,103,FCC,CAST,FCC,
J105,10.1038/s41598-019-43329-w,Al1 Cr0.077 Cu0.077 Mg0.077 Si0.231 Zn0.077,FCC,S,AC,,,,C,25.0,490.0,,6.0,,78.4,,,,,,,3.06,,103,FCC,CAST,FCC,
J105,10.1038/s41598-019-43329-w,Al1 Cu0.077 Mg0.077 Mn0.077 Si0.231 Zn0.077,FCC,S,AC,,,,C,25.0,622.0,,2.0,,114.1,,,,,,,2.98,,103,FCC,CAST,FCC,
J105,10.1038/s41598-019-43329-w,Al1 Cu0.077 Mg0.077 Si0.231 Zn0.077 Zr0.077,FCC + Laves,M,AC,,,,C,25.0,565.0,,4.0,,105.1,,,,,,,3.06,,103,other,CAST,,
J106,10.3390/e21050448,Co1 Cr1 Fe1 Mo0.2 Ni1,FCC,S,AC,,,,T,25.0,400.0,780.0,53.0,,,,,,"For some reason, missing Yield Strength data",,,,,104,FCC,CAST,FCC,
J106,10.3390/e21050448,Co1 Cr1 Fe1 Mo0.2 Ni1,FCC,S,A,,,,T,25.0,,838.0,43.0,,,,,,,,,,,104,FCC,ANNEAL,FCC,
J106,10.3390/e21050448,Co1 Cr1 Fe1 Mo0.2 Ni1,FCC,S,A,,,,T,25.0,,899.0,31.0,,,,,,,,,,,104,FCC,ANNEAL,FCC,
J106,10.3390/e21050448,Co1 Cr1 Fe1 Mo0.2 Ni1,FCC,S,A,,,,T,25.0,,902.0,29.0,,,,,,,,,,,104,FCC,ANNEAL,FCC,
J106,10.3390/e21050448,Co1 Cr1 Fe1 Mo0.2 Ni1,FCC,S,A,,,,T,25.0,,811.0,52.0,,,,,,,,,,,104,FCC,ANNEAL,FCC,
J106,10.3390/e21050448,Co1 Cr1 Fe1 Mo0.2 Ni1,FCC,S,A,,,,T,25.0,,790.0,49.0,,,,,,,,,,,104,FCC,ANNEAL,FCC,
J106,10.3390/e21050448,Co1 Cr1 Fe1 Mo0.2 Ni1,FCC,S,A,,,,T,25.0,,799.0,47.0,,,,,,,,,,,104,FCC,ANNEAL,FCC,
J106,10.3390/e21050448,Co1 Cr1 Fe1 Mo0.2 Ni1,FCC,S,A,,,,T,25.0,,802.0,37.0,,,,,,,,,,,104,FCC,ANNEAL,FCC,
J106,10.3390/e21050448,Co1 Cr1 Fe1 Mo0.2 Ni1,FCC,S,A,,,,T,25.0,,823.0,36.0,,,,,,,,,,,104,FCC,ANNEAL,FCC,
J106,10.3390/e21050448,Co1 Cr1 Fe1 Mo0.2 Ni1,FCC,S,A,,,,T,25.0,,849.0,34.0,,,,,,,,,,,104,FCC,ANNEAL,FCC,
J106,10.3390/e21050448,Co1 Cr1 Fe1 Mo0.2 Ni1,FCC,S,A,,,,T,25.0,,895.0,32.0,,,,,,,,,,,104,FCC,ANNEAL,FCC,
J107,10.3390/ma12071136,Al0.569 Ca0.143 Li0.857 Mg1 Si0.286 Y0.003,,M,AC,,,,C,25.0,556.0,,3.0,,,,,,changed to multiphase,,,1.7,,105,other,CAST,,
J107,10.3390/ma12071136,Al0.429 Ca0.286 Li1 Mg1 Si0.143,,M,AC,,,,C,25.0,418.0,,13.0,,,,,,changed to multiphase,,,1.57,,105,other,CAST,,
J107,10.3390/ma12071136,Al0.312 Ca0.021 Li0.792 Mg1 Si0.021,,M,AC,,,,C,25.0,360.0,,9.0,,,,,,corrected the name; changed to multiphase,,,1.52,,105,other,CAST,,
J107,10.3390/ma12071136,Al0.333 Ca0.011 Li0.844 Mg1 Si0.033,,M,AC,,,,C,25.0,342.0,,44.0,,,,,,changed to multiphase,,,1.5,,105,other,CAST,,
J107,10.3390/ma12071136,Al0.333 Ca0.011 Li0.867 Mg1 Si0.011,,M,AC,,,,C,25.0,300.0,,63.0,,,,,,changed to multiphase,,,1.46,,105,other,CAST,,
J109,10.3390/e21030288,Co1 Cr1 Fe1 Ni1 Pd1,FCC,S,AC,,,295.0,,,,,,,,,,,,,,,,106,FCC,CAST,FCC,
J109,10.3390/e21030288,Co1 Cr1 Fe1 Mn0.2 Ni1 Pd1,FCC + IM,M,AC,,,470.0,C,25.0,650.0,,50.0,,,,,,changed to multiphase,,,,,106,other,CAST,,
J109,10.3390/e21030288,Co1 Cr1 Fe1 Mn0.4 Ni1 Pd1,FCC + IM,M,AC,,,380.0,C,25.0,650.0,,46.0,,,,,,changed to multiphase,,,,,106,other,CAST,,
J109,10.3390/e21030288,Co1 Cr1 Fe1 Mn0.6 Ni1 Pd1,FCC + IM,M,AC,,,180.0,C,25.0,650.0,,42.0,,,,,,changed to multiphase,,,,,106,other,CAST,,
J109,10.3390/e21030288,Co1 Cr1 Fe1 Mn0.8 Ni1 Pd1,FCC + IM,M,AC,,,160.0,C,25.0,650.0,,35.0,,,,,,changed to multiphase,,,,,106,other,CAST,,
J110,10.1016/j.scriptamat.2018.12.021,Al0.3 Co1 Cr1 Fe1 Mn1 Ni1,,,SPS,,,,,,,,,,,,,,Skipped,,,,,108,other,POWDER,,2018
J111,10.1557/jmr.2019.40,Cr1 Fe1 Ni1 Ti0.2,BCC + FCC,M,AC,,,362.2,C,25.0,2297.94,,5.8,,,,,,,,,,,109,other,CAST,,2019
J111,10.1557/jmr.2019.40,Cr1 Fe1 Ni1 Ti0.3,BCC + FCC,M,AC,,,510.3,C,25.0,2364.63,,,,,,,,corrected elongations,,,,,109,other,CAST,,2019
J111,10.1557/jmr.2019.40,Cr1 Fe1 Ni1 Ti0.4,BCC,S,AC,,,600.3,C,25.0,2475.41,,6.5,,,,,,corrected elongations,,,,,109,BCC,CAST,BCC,2019
J111,10.1557/jmr.2019.40,Cr1 Fe1 Ni1 Ti0.5,BCC,S,AC,,,709.6,C,25.0,2380.79,,,,,,,,corrected elongations,,,,,109,BCC,CAST,BCC,2019
J111,10.1557/jmr.2019.40,Cr1 Fe1 Ni1 Ti0.6,BCC,S,AC,,,718.2,C,25.0,1923.15,,,,,,,,corrected elongations,,,,,109,BCC,CAST,BCC,2019
J112,10.1557/jmr.2019.18,Al1 Cr1 Cu1 Fe1 Mn1,sigma + FeMn,M,SPS,,,633.0,C,25.0,1010.0,,,,,,,,fixed strength,,,,,110,other,POWDER,,2019
J112,10.1557/jmr.2019.18,Al1 Cr1 Cu1 Fe1 Mn1 W0.05,BCC + sigma + FeMn,M,SPS,,,680.0,C,25.0,1120.0,,,,,,,,fixed strength,,,,,110,other,POWDER,,2019
J112,10.1557/jmr.2019.18,Al1 Cr1 Cu1 Fe1 Mn1 W0.1,BCC + sigma + FeMn,M,SPS,,,705.0,C,25.0,1250.0,,,,,,,,fixed strength,,,,,110,other,POWDER,,2019
J112,10.1557/jmr.2019.18,Al1 Cr1 Cu1 Fe1 Mn1 W0.5,BCC + sigma + FeMn,M,SPS,,,780.0,C,25.0,1510.0,,,,,,,,fixed strength,,,,,110,other,POWDER,,2019
J113,10.1557/jmr.2019.36,Co1 Cu1 Fe1 Nb0.5 Ni1,FCC + Laves,M,HR,,,,,,,,,,,,,,No data for FeCoNiCuNb0.5,,,,,111,other,WROUGHT,,2019
J113,10.1557/jmr.2019.36,Co0.2 Cu0.2 Fe0.2 Nb1 Ni0.2,FCC + Laves,M,HR,,,,C,25.0,1498.0,,37.6,,,,,,fixed processing to HR,,,,,111,other,WROUGHT,,2019
J113,10.1557/jmr.2019.36,Co0.133 Cu0.133 Fe0.133 Nb1 Ni0.133,FCC + Laves,M,HR,,,,C,25.0,1635.0,,31.7,,,,,,fixed processing to HR,,,,,111,other,WROUGHT,,2019
J113,10.1557/jmr.2019.36,Co0.086 Cu0.086 Fe0.086 Nb1 Ni0.086,FCC + Laves,M,HR,,,,C,25.0,1703.0,,18.3,,,,,,fixed processing to HR,,,,,111,other,WROUGHT,,2019
J113,10.1557/jmr.2019.36,Co0.067 Cu0.067 Fe0.067 Nb1 Ni0.067,FCC + Laves,M,HR,,,,C,25.0,1415.0,,12.6,,,,,,fixed processing to HR,,,,,111,other,WROUGHT,,2019
J115,10.1016/j.msea.2019.01.088,Co0.2 Cr0.2 Fe1 Mn0.6,FCC + BCP,M,AC,,,296.0,,,,,,,,,,,No mechanical data,,,,,112,other,CAST,,2019
J115,10.1016/j.msea.2019.01.088,B0.006 Co0.201 Cr0.201 Fe1 Mn0.604,FCC + BCP,M,AC,,,282.0,,,,,,,,,,,,,,,,112,other,CAST,,2019
J115,10.1016/j.msea.2019.01.088,B0.012 Co0.202 Cr0.202 Fe1 Mn0.607,FCC + BCP,M,AC,,,306.0,,,,,,,,,,,,,,,,112,other,CAST,,2019
J115,10.1016/j.msea.2019.01.088,B0.035 Co0.207 Cr0.207 Fe1 Mn0.621,FCC + BCP,M,AC,,,452.0,,,,,,,,,,,,,,,,112,other,CAST,,2019
J116,10.1016/j.msea.2019.01.083,Al0.186 Cr0.149 Fe1 Mn0.861 Ni0.28,,,AC,,,,T,25.0,159.0,535.0,,40.8 ,,,,,,,,,,113,other,CAST,,2019
J116,10.1016/j.msea.2019.01.083,Al0.186 Cr0.149 Fe1 Mn0.861 Ni0.28,,M,A,,,,T,25.0,409.0,584.0,,10.5 ,,,,,marked as multiphase,,,,,113,other,ANNEAL,,2019
J116,10.1016/j.msea.2019.01.083,Al0.186 Cr0.149 Fe1 Mn0.861 Ni0.28,,,AC,,,,T,25.0,355.0,1174.0,,49.5 ,,,,,,,,,,113,other,CAST,,2019
J116,10.1016/j.msea.2019.01.083,Al0.186 Cr0.149 Fe1 Mn0.861 Ni0.28,,M,A,,,,T,25.0,954.0,978.0,,2 ,,,,,marked as multiphase,,,,,113,other,ANNEAL,,2019
J117,10.1007/s00339-019-2484-1,Hf1 Ti1 Zr1,2HCP,M,AC,,,211.0,C,25.0,773.0,,17.0,,,,,,changed to two HCP phases,,,,,114,other,CAST,Other,
J117,10.1007/s00339-019-2484-1,Hf1 Sc1 Ti1 Zr1,2HCP,M,AC,,,233.0,C,25.0,1001.0,,21.9,,,,,,changed to two HCP phases,,,,,114,other,CAST,Other,
J117,10.1007/s00339-019-2484-1,Hf1 Ti1 Y1 Zr1,2HCP,M,AC,,,241.0,C,25.0,554.0,,17.7,,,,,,changed to two HCP phases,,,,,114,other,CAST,Other,
J117,10.1007/s00339-019-2484-1,Hf1 Sc1 Ti1 Y1 Zr1,2HCP,M,AC,,,256.0,C,25.0,793.0,,15.7,,,,,,changed to two HCP phases,,,,,114,other,CAST,Other,
J118,10.1007/s10853-018-03196-8,Co1 Cr1 Fe1 Ga1 Ni1,FCC + BCC,M,AC,,,,,,,,,,,,,,Induction Melting,,,,,115,other,CAST,,
J119,10.1007/s00339-019-2506-z,Al0.562 Co0.938 Cr0.312 Fe0.312 Ni1,FCC + BCC,M,AC,,,305.4,C,25.0,1129.4,,16.7,,,,,,,,,,,116,other,CAST,,
J119,10.1007/s00339-019-2506-z,Al0.581 Co0.968 Cr0.323 Fe0.323 Mo0.032 Ni1,FCC + BCC,M,AC,,,357.3,C,25.0,1159.7,,18.2,,,,,,,,,,,116,other,CAST,,
J119,10.1007/s00339-019-2506-z,Al0.6 Co1 Cr0.333 Fe0.333 Mo0.067 Ni1,FCC + BCC,M,AC,,,362.6,C,25.0,1250.8,,14.7,,,,,,,,,,,116,other,CAST,,
J119,10.1007/s00339-019-2506-z,Al0.6 Co1 Cr0.333 Fe0.333 Mo0.1 Ni0.967,FCC + BCC,M,AC,,,359.7,C,25.0,1198.3,,14.5,,,,,,,,,,,116,other,CAST,,
J120,10.3390/met9030351,Co1 Cr1 Fe1 Mo0.149 Ni1,FCC + sigma,M,SPS,,,210.0,,,,,,,,,,,"No mechanical data, changed to multiphase",,,,,118,other,POWDER,,
J121,10.1007/s11665-018-3837-1,Co1 Cr1 Cu1 Fe1 Ni1,FCC,S,AC,,,,C,25.0,300.0,,50.2,,,,,,,,,,,119,FCC,CAST,FCC,
J121,10.1007/s11665-018-3837-1,Co1 Cr1 Cu1 Fe1 Ni1 V0.042,FCC + Cu phase,M,AC,,,,C,25.0,303.0,,50.2,,,,,,changed to multiphase,,,,,119,other,CAST,,
J121,10.1007/s11665-018-3837-1,Co1 Cr1 Cu1 Fe1 Ni1 V0.087,FCC + Cu phase,M,AC,,,,C,25.0,307.0,,50.2,,,,,,changed to multiphase,,,,,119,other,CAST,,
J121,10.1007/s11665-018-3837-1,Co1 Cr1 Cu1 Fe1 Ni1 V0.136,FCC + Sigma + Cu phase,M,AC,,,,C,25.0,330.0,,50.2,,,,,,changed to multiphase,,,,,119,other,CAST,,
J121,10.1007/s11665-018-3837-1,Co1 Cr1 Cu1 Fe1 Ni1 V0.19,FCC + Sigma + Cu phase,M,AC,,,,C,25.0,616.0,,28.0,,,,,,changed to multiphase,,,,,119,other,CAST,,
J122,10.3390/e21020122,Co1 Cr1 Cu1 Ni1 Zn1,FCC,S,SPS,500.0,,,C,25.0,,,,,,,,,,,,5.26,,120,FCC,POWDER,FCC,
J122,10.3390/e21020122,Co1 Cr1 Cu1 Ni1 Zn1,FCC,S,SPS,500.0,,,C,25.0,,,,,,,,,,,,6.26,,120,FCC,POWDER,FCC,
J122,10.3390/e21020122,Co1 Cr1 Cu1 Ni1 Zn1,FCC,S,SPS,500.0,,,C,25.0,,,,,,,,,,,,7.84,,120,FCC,POWDER,FCC,
J122,10.3390/e21020122,Co1 Cr1 Cu1 Ni1 Zn1,FCC,S,SPS,500.0,,615.0,C,25.0,,,,,,,,,,,,7.89,,120,FCC,POWDER,FCC,
J123,10.3390/e21020114,Hf1 Nb1 Ta1 Ti1 Zr1,BCC,S,AC,500.0,,359.0,T,25.0,1155.0,1212.0,12.3,,59.0,,,,,,,,,121,BCC,CAST,BCC,
J123,10.3390/e21020114,Nb1 Ta1 Ti1 Zr1,BCC,S,AC,500.0,,358.0,T,25.0,1144.0,1205.0,6.4,,98.0,,,,,,,,,121,BCC,CAST,BCC,
J123,10.3390/e21020114,Nb1 Ta1 Ti1,BCC,S,AC,500.0,,246.0,T,25.0,620.0,683.0,18.5,,143.0,,,,,,,,,121,BCC,CAST,BCC,
J123,10.3390/e21020114,Ta1 Ti1 Zr1,BCC + ,M,AC,500.0,,485.0,T,25.0,,284.0,0.0,,157.0,,,,changed to multiphase,,,,,121,other,CAST,,
J123,10.3390/e21020114,Nb1 Ti1 Zr1,BCC,S,AC,500.0,,295.0,T,25.0,956.0,991.0,14.2,,88.0,,,,,,,,,121,BCC,CAST,BCC,
J123,10.3390/e21020114,Nb1 Ta0.667 Ti0.667 Zr0.333,BCC + ,M,AC,500.0,,294.0,T,25.0,822.0,852.0,0.33,,127.0,,,,changed to multiphase,,,,,121,other,CAST,,
J123,10.3390/e21020114,Nb0.333 Ta0.667 Ti0.667 Zr1,BCC + ,M,AC,500.0,,489.0,T,25.0,,843.0,0.0,,93.0,,,,changed to multiphase,,,,,121,other,CAST,,
J124,10.1016/j.msea.2018.12.020,Ag1 Al1 Nb1 Ti1 Zn1,,M,A,,,,,,,,,,,,,,changed to multiphase,,,4.75,,122,other,ANNEAL,,2018
J124,10.1016/j.msea.2018.12.020,Ag1 Al1 Nb1 Ti1 Zn1,,M,A,,,,,,,,,,,,,,changed to multiphase,,,5.78,,122,other,ANNEAL,,2018
J124,10.1016/j.msea.2018.12.020,Ag1 Al1 Nb1 Ti1 Zn1,,M,A,,,,,,,,,,,,,,changed to multiphase,,,5.79,,122,other,ANNEAL,,2018
J124,10.1016/j.msea.2018.12.020,Ag1 Al1 Nb1 Ti1 Zn1,,M,A,,,,,,,,,,,,,,changed to multiphase,,,5.51,,122,other,ANNEAL,,2018
J124,10.1016/j.msea.2018.12.020,Ag1 Al1 Nb1 Ti1 Zn1,,M,A,,,,,,,,,,,,,,changed to multiphase,,,,,122,other,ANNEAL,,2018
J125,10.1155/2019/2157592,Al0.774 Fe1 Mn0.903 Ni0.484,,,AC,,,310.0,,,,,,,,,,,,,,,,123,other,CAST,,
J125,10.1155/2019/2157592,Al0.774 Fe1 Mn0.903 Ni0.484 Ti0.026,,,AC,,,330.0,,,,,,,,,,,,,,,,123,other,CAST,,
J125,10.1155/2019/2157592,Al0.774 Fe1 Mn0.903 Ni0.484 Ti0.097,,,AC,,,500.0,,,,,,,,,,,,,,,,123,other,CAST,,
J125,10.1155/2019/2157592,Al0.774 Fe1 Mn0.903 Ni0.484,,,A,,,340.0,,,,,,,,,,,,,,,,123,other,ANNEAL,,
J125,10.1155/2019/2157592,Al0.774 Fe1 Mn0.903 Ni0.484 Ti0.026,,,A,,,410.0,,,,,,,,,,,,,,,,123,other,ANNEAL,,
J125,10.1155/2019/2157592,Al0.774 Fe1 Mn0.903 Ni0.484 Ti0.097,,,A,,,495.0,,,,,,,,,,,,,,,,123,other,ANNEAL,,
J125,10.1155/2019/2157592,Al0.774 Fe1 Mn0.903 Ni0.484,,,A,,,330.0,,,,,,,,,,,,,,,,123,other,ANNEAL,,
J125,10.1155/2019/2157592,Al0.774 Fe1 Mn0.903 Ni0.484 Ti0.026,,,A,,,330.0,,,,,,,,,,,,,,,,123,other,ANNEAL,,
J125,10.1155/2019/2157592,Al0.774 Fe1 Mn0.903 Ni0.484 Ti0.097,,,A,,,490.0,,,,,,,,,,,,,,,,123,other,ANNEAL,,
J126,10.1080/00325899.2019.1576389,Al1 C1 Co1 Cr1 Fe1 Ni1,FCC + BCC,M,SPS,,,,,,,,,,,,,,,,,,,124,other,POWDER,,2019
J128,10.1007/s11106-019-00012-z,Cr1 Cu1 Fe1 Ni1 Ti1,FCC + BCC,M,AC,,,,,,,,,,,,,,No Mechanical Data,,,,,125,other,CAST,,
J128,10.1007/s11106-019-00012-z,Cr1 Cu1 Fe1 Ni1 Ti1,FCC + BCC,M,HF + A,,,,,,,,,,,,,,,,,,,125,other,WROUGHT,,
J129,10.1080/00325899.2018.1554834,Co1 Cr1 Fe1 Mn1 Ni1,FCC  ,S,SPS,0.03,,435.0,C,25.0,1100.0,,47.0,,,,,,,,,7.753,,126,other,POWDER,Other,2018
J130,10.1007/s11665-018-3822-8,Al0.5 Cr1 Cu1 Fe1 Ni1,FCC,S,AC,,,226.0,,,,,,,,,,,,,,,,128,FCC,CAST,FCC,
J130,10.1007/s11665-018-3822-8,Al0.5 Cr1 Cu1 Fe1 Ni1,FCC,S,CR + A,,,287.0,,,,,,,,,,,,,,,,128,FCC,WROUGHT,FCC,
J131,10.3390/e21010015,Hf1 Mo1 Nb1 Ta1 Ti1 Zr1,BCC,S,AC,,,,C,25.0,1512.0,,12.0,,,,,,,,,,,129,BCC,CAST,BCC,
J131,10.3390/e21010015,Hf1 Nb1 Ta1 Ti1 Zr1,BCC,S,AC,,,,C,25.0,929.0,,50.0,,,,,,,,,,,129,BCC,CAST,BCC,
J131,10.3390/e21010015,Hf1 Mo1 Ta1 Ti1 Zr1,BCC,S,AC,,,,C,25.0,1600.0,,4.0,,,,,,,,,,,129,BCC,CAST,BCC,
J131,10.3390/e21010015,Hf1 Mo1 Nb1 Ti1 Zr1,BCC,S,AC,,,,C,25.0,1351.0,,20.0,,,,,,,,,,,129,BCC,CAST,BCC,
J131,10.3390/e21010015,Hf1 Mo1 Nb1 Ta1 Zr1,BCC,S,AC,,,,C,25.0,1524.0,,16.0,,,,,,,,,,,129,BCC,CAST,BCC,
J131,10.3390/e21010015,Hf1 Mo1 Nb1 Ta1 Ti1,BCC,S,AC,,,,C,25.0,1369.0,,27.0,,,,,,,,,,,129,BCC,CAST,BCC,
J131,10.3390/e21010015,Hf1 Mo1 Nb1 Ta1 Ti1 Zr1,BCC,S,AC,,,,C,800.0,1007.0,,,,,,,,,,,,,129,BCC,CAST,BCC,
J131,10.3390/e21010015,Hf1 Nb1 Ta1 Ti1 Zr1,BCC,S,AC,,,,C,800.0,535.0,,,,,,,,,,,,,129,BCC,CAST,BCC,
J131,10.3390/e21010015,Hf1 Mo1 Ta1 Ti1 Zr1,BCC,S,AC,,,,C,800.0,1045.0,,,,,,,,,,,,,129,BCC,CAST,BCC,
J131,10.3390/e21010015,Hf1 Mo1 Nb1 Ti1 Zr1,BCC,S,AC,,,,C,800.0,829.0,,,,,,,,,,,,,129,BCC,CAST,BCC,
J131,10.3390/e21010015,Hf1 Mo1 Nb1 Ta1 Zr1,BCC,S,AC,,,,C,800.0,1005.0,,,,,,,,,,,,,129,BCC,CAST,BCC,
J131,10.3390/e21010015,Hf1 Mo1 Nb1 Ta1 Ti1,BCC,S,AC,,,,C,800.0,822.0,,,,,,,,,,,,,129,BCC,CAST,BCC,
J131,10.3390/e21010015,Hf1 Mo1 Nb1 Ta1 Ti1 Zr1,BCC,S,AC,,,,C,1000.0,814.0,,,,,,,,,,,,,129,BCC,CAST,BCC,
J131,10.3390/e21010015,Hf1 Nb1 Ta1 Ti1 Zr1,BCC,S,AC,,,,C,1000.0,295.0,,,,,,,,,,,,,129,BCC,CAST,BCC,
J131,10.3390/e21010015,Hf1 Mo1 Ta1 Ti1 Zr1,BCC,S,AC,,,,C,1000.0,855.0,,,,,,,,,,,,,129,BCC,CAST,BCC,
J131,10.3390/e21010015,Hf1 Mo1 Nb1 Ti1 Zr1,BCC,S,AC,,,,C,1000.0,721.0,,,,,,,,,,,,,129,BCC,CAST,BCC,
J131,10.3390/e21010015,Hf1 Mo1 Nb1 Ta1 Zr1,BCC,S,AC,,,,C,1000.0,927.0,,,,,,,,,,,,,129,BCC,CAST,BCC,
J131,10.3390/e21010015,Hf1 Mo1 Nb1 Ta1 Ti1,BCC,S,AC,,,,C,1000.0,778.0,,,,,,,,,,,,,129,BCC,CAST,BCC,
J131,10.3390/e21010015,Hf1 Mo1 Nb1 Ta1 Ti1 Zr1,BCC,S,AC,,,,C,1200.0,556.0,,,,,,,,,,,,,129,BCC,CAST,BCC,
J131,10.3390/e21010015,Hf1 Nb1 Ta1 Ti1 Zr1,BCC,S,AC,,,,C,1200.0,92.0,,,,,,,,,,,,,129,BCC,CAST,BCC,
J131,10.3390/e21010015,Hf1 Mo1 Ta1 Ti1 Zr1,BCC,S,AC,,,,C,1200.0,404.0,,,,,,,,,,,,,129,BCC,CAST,BCC,
J131,10.3390/e21010015,Hf1 Mo1 Nb1 Ti1 Zr1,BCC,S,AC,,,,C,1200.0,301.0,,,,,,,,,,,,,129,BCC,CAST,BCC,
J131,10.3390/e21010015,Hf1 Mo1 Nb1 Ta1 Zr1,BCC,S,AC,,,,C,1200.0,694.0,,,,,,,,,,,,,129,BCC,CAST,BCC,
J131,10.3390/e21010015,Hf1 Mo1 Nb1 Ta1 Ti1,BCC,S,AC,,,,C,1200.0,699.0,,,,,,,,,,,,,129,BCC,CAST,BCC,