REFERENCE: tag,REFERENCE: doi,FORMULA,PROPERTY: Type of phases,PROPERTY: Single/Multiphase,PROPERTY: synthesis method,PROPERTY: grain size ($\mu$m),PROPERTY: ROM Density (g/cm$^3$),PROPERTY: HV,PROPERTY: Type of test,PROPERTY: Test temperature ($^\circ$C),PROPERTY: YS (MPa),PROPERTY: UTS (MPa),PROPERTY: Elongation (%),PROPERTY: Elongation plastic (%),PROPERTY: ROM Young modulus (GPa),PROPERTY: Exp. Young modulus (GPa),PROPERTY: O content (wppm),PROPERTY: N content (wppm),PROPERTY: C content (wppm),REFERENCE: comment
Couzinie_9,10.1016/j.jallcom.2015.08.224,AlNbTiV,BCC,S,A,,5.5,,C,1000,110,,,,,,,,,
Couzinie_9,10.1016/j.jallcom.2015.08.224,AlNbTiV,BCC,S,A,,5.5,,C,25,1000,1280,,,,,,,,
new_ref_2,10.1002/maco.201709833,AlCrFeNiMo0.5,BCC+B2,M,AC,,,623.7,C,25,1914.1,4023.6,27.9,,,,,,,
new_ref_2,10.1002/maco.201709833,AlCrFeNiMo0.5Ti0.25,BCC+B2,M,AC,,,712,C,25,2161.7,3641.5,14.3,,,,,,,
new_ref_2,10.1002/maco.201709833,AlCrFeNiMo0.5Ti0.4,BCC+B2,M,AC,,,731.9,C,25,2185.1,3673.4,14.8,,,,,,,
new_ref_2,10.1002/maco.201709833,AlCrFeNiMo0.5Ti0.5,BCC+B2,M,AC,,,751.7,C,25,2228.7,3166.2,10.4,,,,,,,
new_ref_2,10.1002/maco.201709833,AlCrFeNiMo0.5Ti0.6,BCC+B2,M,AC,,,756.1,C,25,1314.5,1314.5,,,,,,,,
new_ref_2,10.1002/maco.201709833,AlCrFeNiMo0.5Ti0.75,BCC+B2,M,AC,,,766.2,C,25,618.8,618.8,,,,,,,,
new_ref_4,10.1016/j.matdes.2018.06.003,AlCrMoNb,Laves (C14)+A15,M,A,,,,,,,,,,,,,,,
new_ref_4,10.1016/j.matdes.2018.06.003,AlCrMoNb,Laves (C14)+A15,M,AC,,,,,,,,,,,,,,,
new_ref_4,10.1016/j.matdes.2018.06.003,AlHfNbTi,B2,S,A,,,,,,,,,,,,,,,
new_ref_4,10.1016/j.matdes.2018.06.003,AlHfNbTi,B2,S,AC,,,,,,,,,,,,,,,
new_ref_4,10.1016/j.matdes.2018.06.003,AlHfTaTi,B2,S,A,,,,,,,,,,,,,,,
new_ref_4,10.1016/j.matdes.2018.06.003,AlHfTaTi,B2,S,AC,,,,,,,,,,,,,,,
new_ref_4,10.1016/j.matdes.2018.06.003,AlMoNbTi,BCC+A15,M,A,,,,,,,,,,,,,,,
new_ref_4,10.1016/j.matdes.2018.06.003,AlMoNbTi,BCC,S,AC,,,509 $\pm$ 18,,,,,,,,,,,,
new_ref_4,10.1016/j.matdes.2018.06.003,AlNbTaTi,BCC+A15,M,A,,,,,,,,,,,,,,,
new_ref_4,10.1016/j.matdes.2018.06.003,AlNbTaTi,BCC,S,AC,,,458 $\pm$ 10,,,,,,,,,,,,
new_ref_4,10.1016/j.matdes.2018.06.003,CrMoTaTi,BCC,S,A,,,555 $\pm$ 24,,,,,,,,,,,,
new_ref_4,10.1016/j.matdes.2018.06.003,CrMoTaTi,BCC,S,AC,,,539 $\pm$ 32,,,,,,,,,,,,
new_ref_4,10.1016/j.matdes.2018.06.003,CrNbTaTi,BCC+Laves (C15),M,A,,,,,,,,,,,,,,,
new_ref_4,10.1016/j.matdes.2018.06.003,CrNbTaTi,BCC,S,AC,,,495 $\pm$ 26,,,,,,,,,,,,
new_ref_4,10.1016/j.matdes.2018.06.003,CrNbTiW,BCC+Laves (C15),M,A,,,630 $\pm$ 28,,,,,,,,,,,,
new_ref_4,10.1016/j.matdes.2018.06.003,CrNbTiW,BCC,S,AC,,,630 $\pm$ 24,,,,,,,,,,,,
new_ref_4,10.1016/j.matdes.2018.06.003,HfNbTaTi,BCC,S,A,,,280 $\pm$ 10,,,,,,,,,,,,
new_ref_4,10.1016/j.matdes.2018.06.003,HfNbTaTi,BCC,S,AC,,,270 $\pm$ 5,,,,,,,,,,,,
new_ref_4,10.1016/j.matdes.2018.06.003,MoNbTaTiW,BCC,S,A,,,482 $\pm$ 10,,,,,,,,,,,,
new_ref_4,10.1016/j.matdes.2018.06.003,MoNbTaTiW,BCC,S,AC,,,446 $\pm$ 32,,,,,,,,,,,,
new_ref_4,10.1016/j.matdes.2018.06.003,MoNbTaTi,BCC,S,A,,,407 $\pm$ 17,,,,,,,,,,,,
new_ref_4,10.1016/j.matdes.2018.06.003,MoNbTaTi,BCC,S,AC,,,431 $\pm$ 7,,,,,,,,,,,,